default_name
 43664
  22.8443283  28.8033542  45.6077694  22.5397458  28.7327098  44.6473841
  22.2570591  29.4713835  46.0862588  22.9579980  27.8719977  45.9816061
  24.2103283  29.4013542  45.6177694  24.2493805  30.3207038  46.2020385
  25.1183283  28.3643542  46.2777694  25.0350424  27.4412640  45.7041256
  26.1409021  28.7371390  46.2188263  24.7543283  28.0863542  47.7597694
  24.5082676  28.9846701  48.3259702  23.8915545  27.4204449  47.7428754
  25.9343283  27.3743542  48.4217694  26.6463283  26.6333542  47.7027694
  26.1653283  27.6453542  49.6227694  24.7193283  29.9193542  44.2857694
  25.2853283  31.0103542  44.2327694  24.4573283  29.2353542  43.1567694
  23.9111403  28.3876246  43.2127382  24.9453283  29.6543542  41.8567694
  25.8519101  30.2523270  41.9497062  25.2723283  28.3913542  41.0557694
  24.4390545  27.6971732  41.1647035  25.4557379  28.5747497  39.9970782
  26.4763283  27.6963542  41.5817694  26.3893283  26.9403542  42.7367694
  25.6016850  26.8073939  43.3548627  27.5793283  26.4073542  42.8787694
  27.7240188  25.7537804  43.7390048  28.4353283  26.7853542  41.8907694
  27.7193283  27.6183542  41.0577694  28.1982981  28.0562348  40.1820127
  23.9653283  30.4973542  41.0597694  24.1633283  30.7583542  39.8807694
  22.8753283  30.9583542  41.7107694  22.6671604  30.5358680  42.6042295
  21.8893283  31.8493542  41.1237694  21.0845106  32.0170329  41.8394869
  22.5123283  33.2203542  40.7477694  23.3409320  33.0999202  40.0499078
  21.7672118  33.8876283  40.3145874  23.1923283  34.0933542  42.1927694
  23.6147277  35.1621757  41.5233685  21.0573283  31.2453542  39.9897694
  20.5883283  31.9393542  39.0917694  20.7533283  29.9323542  40.0437694
  21.1364723  29.3774545  40.7956912  19.9893283  29.2563542  39.0087694
  20.3252099  29.5434948  38.0123593  20.2223283  27.7503542  39.1897694
  19.9454020  27.4720467  40.2066057  19.5936177  27.2103253  38.4818204
  21.7083283  27.3873542  38.9417694  21.7836860  26.9889146  37.9300047
  22.3358556  28.2742030  39.0301308  22.1743283  26.3363542  39.9357694
  22.1603283  26.6823542  41.1547694  22.5673283  25.2313542  39.4967694
  18.5023283  29.6043542  38.9677694  17.8553283  29.5083542  37.9277694
  17.9483283  30.0853542  40.0997694  18.5019688  30.0287447  40.9426080
  16.5863283  30.5683542  40.2037694  15.9123848  29.9191859  39.6447705
  16.1483283  30.5743542  41.6907694  16.2419967  29.5476809  42.0447008
  16.8606751  31.2070657  42.2202392  14.7103283  31.0823542  41.9567694
  14.7407344  32.1626212  41.8146446  14.0839934  30.6325468  41.1863929
  14.1253283  30.7643542  43.3427694  13.1032365  31.1344430  43.4231536
  14.1379875  29.6903829  43.5285784  14.9703283  31.4463542  44.3907694
  14.7695306  32.4230291  44.5516600  15.9493283  30.8673542  45.1047694
  16.2743283  29.5913542  44.9247694  15.7795041  29.0392939  44.2388551
  17.0146491  29.1795495  45.4747164  16.6073283  31.5803542  46.0167694
  16.3665001  32.5498949  46.1654055  17.3442327  31.1483555  46.5557014
  16.3573283  31.9273542  39.5577694  15.3093283  32.1653542  38.9667694
  17.3123283  32.8823542  39.6607694  18.1456514  32.7273590  40.2099947
  17.0423283  34.2273542  39.1837694  15.9686053  34.4074163  39.2366432
  17.7713283  35.3193542  40.0187694  17.3089531  36.2489113  39.6867574
  17.5179678  35.1411595  41.0638317  19.3003283  35.4263542  39.8727694
  19.6772596  34.4535757  39.5569757  19.7193283  36.4953542  38.8487694
  19.3431266  37.4685495  39.1641452  20.8068206  36.5304515  38.7837341
  19.3053183  36.2455201  37.8718973  19.9443283  35.7473542  41.2317694
  19.7093552  34.9546554  41.9420622  21.0254909  35.8201801  41.1139347
  19.5552744  36.6950849  41.6039824  17.2483283  34.3193542  37.6567694
  18.1653283  33.6813542  37.1177694  16.4073283  35.0243542  36.8937694
  15.0783283  35.4263542  37.3487694  15.1981253  36.1418070  38.1623271
  14.5614268  34.5405096  37.7178103  14.3923283  36.0343542  36.1307694
  14.5571128  37.1112014  36.0940937  13.3215420  35.8316780  36.1517545
  15.0583283  35.3273542  34.9507694  15.1351540  36.0103374  34.1047607
  14.5129298  34.4337451  34.6472849  16.4653283  34.9423542  35.4417694
  16.6948809  33.9119287  35.1704260  17.5133283  35.8633542  34.8547694
  18.1183283  36.6693542  35.5557694  17.7393283  35.7363542  33.5397694
  17.2456708  34.9933369  33.0661377  18.6323283  36.5643542  32.7677694
  19.3141374  37.1098473  33.4202055  19.4703283  35.6473542  31.8267694
  20.1125418  35.0661609  32.4884910  18.8061627  34.9752420  31.2834009
  20.3193283  36.4113542  30.8487694  21.3363283  37.2563542  31.3017694
  21.5437396  37.3243529  32.3696908  22.0863283  38.0123542  30.3937694
  22.8419108  38.7045211  30.7653900  21.8493283  37.9093542  29.0257694
  22.6773283  38.6233542  28.1477694  23.3532364  39.1329898  28.6005601
  20.8263283  37.0803542  28.5597694  20.6182054  37.0140472  27.4918796
  20.0663283  36.3323542  29.4697694  19.2699299  35.6813668  29.1091240
  17.7673283  37.5313542  31.9827694  16.9353283  37.1093542  31.1707694
  17.9463283  38.8433542  32.2027694  18.5035797  39.1028388  33.0041669
  17.2993283  39.8863542  31.4567694  16.3244011  39.5608374  31.0939265
  17.0963283  41.0983542  32.4047694  16.6134778  40.7242132  33.3075280
  18.0662362  41.5240949  32.6619145  16.2263283  42.1683542  31.7727694
  15.7563283  41.9343542  30.6307694  16.0593283  43.2263542  32.4267694
  18.1223283  40.1543542  30.1937694  19.1553283  40.8553542  30.2087694
  17.7123283  39.5593542  29.0627694  16.9573291  38.8958099  29.1616866
  18.3023283  39.7363542  27.7547694  19.3614972  39.5006433  27.8582140
  17.6753283  38.7553542  26.7407694  16.6166179  38.9846057  26.6196249
  18.1800953  38.8535117  25.7796889  17.7859819  37.7343786  27.1060966
  18.1903283  41.1643542  27.2197694  19.1203283  41.6633542  26.5837694
  17.0653283  41.8783542  27.4487694  16.2964158  41.4306919  27.9267561
  16.8703283  43.2403542  26.9417694  17.1590461  43.2456506  25.8907160
  15.4113283  43.7803542  27.0607694  15.3540979  44.7421031  26.5510019
  14.7382919  43.0725970  26.5768254  15.0293283  43.9423542  28.4247694
  14.1297674  44.2748259  28.4678114  17.8203283  44.2253542  27.5977694
  18.2473283  45.1973542  26.9757694  18.1643283  43.9843542  28.8787694
  17.6437912  43.2941648  29.4010520  19.1913283  44.7313542  29.5657694
  19.1353003  45.7861166  29.2966294  18.9923283  44.6003542  31.0887694
  17.9799170  44.9208928  31.3344877  19.1187912  43.5537331  31.3657016
  20.0023283  45.4593542  31.8617694  20.9447967  44.9120317  31.8788667
  20.1312745  46.3864974  31.3033068  19.5753283  45.7823542  33.2927694
  18.6457876  46.3505770  33.2584798  19.4088615  44.8462247  33.8257327
  20.6443283  46.5983542  34.0187694  21.5861294  46.0497491  34.0067832
  20.7746260  47.5539956  33.5109592  20.2313283  46.8363542  35.4167694
  20.1109546  45.9509665  35.8876181  20.9417643  47.3757656  35.8904950
  19.3588703  47.3450660  35.4281000  20.6413283  44.3873542  29.2357694
  21.4673283  45.2923542  29.0697694  21.0163283  43.0973542  29.1767694
  20.3168366  42.3694948  29.1446538  22.4193283  42.7083542  29.1467694
  23.0598690  43.5619412  29.3685713  22.6563283  41.6223542  30.2177694
  21.9797362  40.7860588  30.0418935  23.6868506  41.2690141  30.1820686
  22.4073283  42.0903542  31.6377694  21.3903283  41.7663542  32.4877694
  20.6413497  41.0749880  32.1015782  21.5403283  42.4123542  33.6997694
  20.9315396  42.3400430  34.5024193  22.6883283  43.1813542  33.6287694
  23.3013283  44.0093542  34.5697694  22.8467294  44.0843796  35.5576002
  24.4663283  44.6953542  34.1867694  24.9676870  45.3579308  34.8922704
  25.0003283  44.5423542  32.9037694  25.8935321  45.0873595  32.5983914
  24.4043283  43.6853542  31.9737694  24.8619201  43.5718366  30.9910058
  23.2463283  43.0153542  32.3517694  22.9313283  42.1253542  27.8407694
  24.1503283  42.0173542  27.6577694  22.0633283  41.7213542  26.8987694
  21.0698590  41.7802185  27.0709701  22.5133283  41.0713542  25.6817694
  23.3028136  40.3638564  25.9352631  21.3783283  40.3073542  24.9567694
  20.8071634  39.7868506  25.7254994  20.7467258  41.0575841  24.4810243
  21.8613283  39.2863542  23.8907694  20.9996177  38.9894539  23.2929351
  22.5738107  39.8189237  23.2608188  22.5303283  38.0393542  24.4757694
  22.4693283  37.8133542  25.7127694  23.1073283  37.2653542  23.6637694
  23.2133283  42.0053542  24.7157694  22.6853283  43.0513542  24.3137694
  24.4313283  41.6513542  24.2937694  24.8419429  40.8066306  24.6651682
  25.2163283  42.4523542  23.3937694  24.6781546  43.3638589  23.1337168
  26.5493283  42.8423542  24.0727694  26.3565558  43.2931092  25.0462980
  27.2274627  41.9973679  24.1920672  27.2813283  43.8683542  23.2627694
  26.7813283  45.1753542  23.1497694  25.8633473  45.4451707  23.6718898
  27.4513283  46.1283542  22.3747694  27.0444848  47.1344244  22.2727801
  28.6443283  45.7883542  21.7307694  29.1863392  46.5369283  21.1528759
  29.1423283  44.4853542  21.8287694  30.0676448  44.2167532  21.3191194
  28.4543283  43.5273542  22.5797694  28.8307939  42.5060044  22.6364980
  25.4033283  41.6433542  22.1087694  25.7143283  40.4533542  22.1897694
  25.2103283  42.1533542  20.8907694  24.6223283  43.4553542  20.5937694
  25.4097242  44.2090062  20.5829682  23.8936934  43.7029417  21.3657089
  23.9753283  43.2623542  19.2217694  23.9393847  44.2043907  18.6746184
  22.9662814  42.8626870  19.3227243  24.8983283  42.2503542  18.5337694
  25.7296289  42.7650369  18.0519602  24.3777775  41.6354611  17.7995807
  25.4253283  41.3643542  19.6847694  24.8339787  40.4523925  19.7668051
  26.8933283  41.0013542  19.4857694  27.7543283  41.8683542  19.6057694
  27.1993283  39.7283542  19.1327694  26.4496615  39.0516014  19.1225452
  28.5573283  39.2603542  18.8757694  29.1701697  39.4731517  19.7516928
  28.6253283  37.7313542  18.5797694  27.8502622  37.5122110  17.8453663
  29.6045168  37.5323714  18.1442287  28.4243283  36.8393542  19.8197694
  29.0353236  37.2603270  20.6182476  27.3716508  36.9069465  20.0943663
  28.8033283  35.3693542  19.6077694  28.3668423  34.9820569  18.6871284
  29.8858042  35.2454553  19.5762344  28.2613283  34.5793542  20.7677694
  28.9045480  34.3822194  21.5210992  26.9763283  34.1943542  20.9017694
  26.0683283  34.4073542  19.9587694  26.3332986  34.8738277  19.1030281
  25.1160869  34.1021038  20.1007483  26.6253283  33.5083542  21.9747694
  27.3174095  33.2828470  22.6749624  25.6665138  33.2125495  22.0899782
  29.2973283  40.0033542  17.7637694  30.5183283  40.0973542  17.8017694
  28.5913283  40.5683542  16.7617694  27.5879755  40.4527392  16.7657180
  29.2043283  41.1953542  15.6127694  30.1707724  40.7422467  15.3919104
  28.2643283  40.9893542  14.3837694  28.8453937  41.3760456  13.5465526
  28.1127678  39.9175438  14.2558947  26.9063283  41.6943542  14.4307694
  26.5043283  42.2093542  15.5087694  26.2323283  41.6713542  13.3727694
  29.5883283  42.6573542  15.8717694  30.2493283  43.3043542  15.0487694
  29.2873283  43.1993542  17.0697694  28.7408171  42.6443720  17.7127465
  29.6893283  44.5313542  17.4807694  30.0046574  45.0992285  16.6054492
  28.5343283  45.2813542  18.1627694  28.1581886  44.6756448  18.9872294
  28.9086992  46.2289521  18.5500738  27.4033283  45.5483542  17.1697694
  27.8239855  46.0581342  16.3030095  26.9878957  44.5893040  16.8603498
  26.3063283  46.4023542  17.7747694  26.0299041  46.0846646  18.7801360
  26.5546258  47.4636469  17.7850438  25.1393283  46.1933542  16.8697694
  25.2969800  45.6832764  16.0124095  23.9143283  46.6643542  17.1147694
  23.6903283  47.4653542  18.1537694  24.4532789  47.7207444  18.7643284
  22.7584166  47.8141502  18.3269211  22.9023283  46.3053542  16.3297694
  23.0662372  45.6795276  15.5541567  21.9746346  46.6602340  16.5129182
  30.8473283  44.4423542  18.4437694  31.1873283  45.4093542  19.1267694
  31.4643283  43.2503542  18.5177694  31.1430091  42.5301697  17.8867483
  32.5413283  42.9373542  19.4177694  32.8044400  43.7920931  20.0409008
  32.0433283  41.7943542  20.3317694  31.0046896  42.0463656  20.5458231
  32.0792996  40.8927648  19.7202608  32.7933283  41.5483542  21.6517694
  33.8437794  41.3746812  21.4183361  32.6733283  42.7383542  22.6157694
  31.6231208  42.9123575  22.8500466  33.2184048  42.5192413  23.5339099
  33.0931906  43.6290426  22.1483400  32.1943283  40.2933542  22.3067694
  32.3162485  39.4408051  21.6386414  32.7077074  40.0935512  23.2473129
  31.1336730  40.4545179  22.4994754  33.7553283  42.4893542  18.6167694
  33.7653283  41.4153542  18.0047694  34.8433283  43.2763542  18.5777694
  34.8421354  44.1640833  19.0594695  36.0223283  42.9053542  17.8267694
  35.7439418  42.1466756  17.0953277  36.6633283  44.1033542  17.0787694
  35.9228340  44.4463091  16.3561704  36.8278645  44.8797441  17.8259284
  37.9923283  43.8003542  16.3497694  38.3044985  44.7190183  15.8530735
  38.7245084  43.5330325  17.1117100  37.8923283  42.6633542  15.3117694
  37.7074176  41.7447825  15.8686652  37.0301131  42.8864583  14.6833517
  39.1323283  42.4853542  14.4317694  38.9576198  41.6954665  13.7012526
  39.3544865  43.4174270  13.9121684  40.2763283  42.1163542  15.2917694
  40.0708489  41.2524736  15.7730057  41.1011934  41.9960987  14.7214745
  40.4386547  42.8483465  15.9684795  37.0103283  42.3113542  18.7927694
  37.6303283  43.0203542  19.5857694  37.1823283  40.9783542  18.7707694
  36.5336648  40.4051327  18.2504309  38.1703283  40.3193542  19.5957694
  38.1374527  40.7420522  20.5999331  37.9143283  38.7963542  19.6917694
  38.0943517  38.4459599  18.6754453  38.6464846  38.3497782  20.3645376
  36.4873283  38.3843542  20.1347694  35.7494679  38.9216512  19.5389718
  36.3103283  36.8723542  19.9267694  37.0475938  36.3343364  20.5226513
  35.3079150  36.5772920  20.2369412  36.4497314  36.6312667  18.8729459
  36.1503283  38.7693542  21.5897694  36.2249658  39.8504934  21.7066738
  35.1357576  38.4481190  21.8254714  36.8517594  38.2819238  22.2668994
  39.6113283  40.6283542  19.1817694  39.9423283  40.7583542  17.9877694
  40.4823283  40.7903542  20.1947694  40.0799198  40.7291715  21.1191197
  41.9093283  41.0383542  20.0797694  42.1599297  41.0375633  19.0189690
  42.1075830  42.0249224  20.4986698  42.7683283  40.0243542  20.7867694
  42.5843283  38.8103542  20.6707694  43.8033283  40.5013542  21.4967694
  43.9400253  41.5019803  21.5094417  44.7873283  39.6653542  22.1537694
  45.0468534  38.8208690  21.5153411  46.0703283  40.4833542  22.4377694
  45.7773317  41.3983996  22.9524966  46.7093693  39.8886310  23.0904800
  46.8403283  40.8413542  21.1537694  47.2626853  39.9269850  20.7370627
  46.1403278  41.2757774  20.4400624  47.9693283  41.8433542  21.4377694
  47.5262957  42.6841889  21.9714529  48.6892160  41.3418181  22.0845482
  48.6813283  42.3543542  20.1817694  49.1863406  41.5252700  19.6861056
  47.9511711  42.7931439  19.5017450  49.6773283  43.3803542  20.5647694
  50.3542499  42.9738509  21.1945566  50.1477239  43.7183037  19.7373529
  49.2095233  44.1488868  21.0236977  44.2633283  38.9983542  23.4327694
  43.3273283  39.5013542  24.0597694  44.7953283  37.8593542  23.8667694
  45.7953283  37.0633542  23.1507694  46.6238999  37.7138818  22.8707995
  45.3361582  36.6531768  22.2513160  46.2113283  35.9763542  24.1397694
  47.1000944  36.2788924  24.6935425  46.4091398  35.0386596  23.6204420
  44.9933283  35.8443542  25.0637694  45.3145153  35.5170898  26.0526253
  44.2312292  35.1628377  24.6858277  44.4283283  37.2693542  25.1437694
  43.3408871  37.2769000  25.2180181  45.0213283  38.0223542  26.3237694
  46.1613283  38.4823542  26.2497694  44.2563283  38.1393542  27.4197694
  43.3302588  37.7385727  27.3765392  44.6703283  38.7783542  28.6497694
  45.5760832  39.3658337  28.4995193  43.5323283  39.7293542  29.1027694
  42.6567882  39.0801295  29.1087716  43.7195438  40.0953480  30.1122737
  43.2783283  40.9283542  28.1587694  43.1818961  40.5499241  27.1411288
  41.9973283  41.6973542  28.5447694  42.0932068  42.0765096  29.5621913
  41.8532811  42.5319516  27.8586219  41.1393794  41.0275537  28.4865334
  44.4853283  41.8793542  28.0977694  45.3574375  41.3373948  27.7319758
  44.2631151  42.7065167  27.4235850  44.6921513  42.2691624  29.0944503
  44.9063283  37.7313542  29.7247694  45.6103283  37.9633542  30.7097694
  44.3723283  36.5113542  29.5467694  43.7400934  36.3351890  28.7790819
  44.6843283  35.4183542  30.4437694  45.7646706  35.2934705  30.5170081
  44.2745107  35.6201805  31.4334234  44.0833283  34.1553542  29.9167694
  43.0223283  34.1823542  29.2917694  44.7483283  33.0083542  30.1217694
  45.6137209  33.0288974  30.6421280  44.2553283  31.7303542  29.6627694
  43.1977384  31.8335474  29.4199652  45.0023283  31.2083542  28.4097694
  46.0580288  31.1574888  28.6762437  44.6269474  30.2026163  28.2208764
  44.8343283  32.0643542  27.1427694  43.7705432  32.1694302  26.9296470
  45.2667628  33.0481804  27.3249464  45.5323283  31.4143542  25.9457694
  46.6118298  31.3940340  26.0953106  45.1678870  30.3983601  25.7939869
  45.2323283  32.2213542  24.7167694  44.6395635  33.0324947  24.8205975
  45.7123283  31.9313542  23.4987694  46.5193283  30.8903542  23.3057694
  46.7784645  30.3045757  24.0866741  46.8687560  30.6911108  22.3793235
  45.3823283  32.6783542  22.4467694  44.7659184  33.4694421  22.5664304
  45.7499822  32.4503544  21.5341110  44.4563283  30.6783542  30.7227694
  45.5233283  30.5933542  31.3417694  43.4363283  29.8323542  30.9337694
  42.5355990  30.0581140  30.5365056  43.5613283  28.6093542  31.7037694
  44.5316797  28.5990562  32.2001678  42.7702012  28.5781590  32.4529317
  43.4503283  27.4063542  30.8307694  43.6433283  27.4683542  29.6187694
  43.1243283  26.2423542  31.4247694  43.1372094  26.1673134  32.4318952
  42.8593283  25.0493542  30.6517694  43.6831993  24.9118729  29.9514590
  42.8153283  23.8343542  31.6077694  41.9896338  23.9531201  32.3093556
  42.6717654  22.9215135  31.0296588  43.7535317  23.7709359  32.1589969
  41.5833283  25.1743542  29.8037694  41.6093283  24.9493542  28.5877694
  40.4743283  25.6323542  30.4267694  40.6079159  26.0195033  31.3500079
  39.1323283  25.6323542  29.8667694  39.1309726  25.1250369  28.9020277
  38.1603283  24.8923542  30.8157694  38.0995243  25.4366550  31.7581805
  37.1598572  24.7749707  30.3993816  38.6513283  23.5153542  31.1467694
  38.9643283  22.6053542  30.1277694  38.8765192  22.9208836  29.0881393
  39.3843283  21.3083542  30.4307694  39.6216278  20.6104773  29.6278015
  39.5003283  20.9053542  31.7637694  39.8383628  19.8973503  32.0041043
  39.1813283  21.7993542  32.7907694  39.2643440  21.4864320  33.8315808
  38.7553283  23.0963542  32.4817694  38.5007259  23.7914892  33.2818100
  38.5453283  27.0183542  29.6707694  37.5603283  27.1793542  28.9527694
  39.1363283  28.0723542  30.2637694  39.9625091  27.9315303  30.8274123
  38.6223283  29.4233542  30.1207694  37.8218177  29.4242557  29.3809849
  38.2297867  29.7593625  31.0805135  39.6923283  30.3623542  29.6787694
  40.8893283  30.0663542  29.7497694  39.2883283  31.5513542  29.2327694
  38.2973663  31.7229587  29.1397887  40.1983283  32.5873542  28.8357694
  41.0669420  32.5829951  29.4942452  40.6813283  32.3713542  27.3757694
  41.3695184  33.1836497  27.1419539  41.2181187  31.4229832  27.3523492
  39.5403283  32.3443542  26.3287694  38.7737383  31.6384955  26.6484630
  39.1098235  33.3437734  26.2660881  40.0313283  31.9363542  24.9407694
  41.2103283  32.0763542  24.5897694  39.1083283  31.3963542  24.1097694
  39.3775055  31.1084738  23.1798393  38.1549604  31.2839473  24.4237051
  39.5343283  33.9353542  28.9697694  38.3013283  34.0413542  29.0027694
  40.3473283  34.9983542  29.0607694  41.3235016  34.8029640  29.2310859
  39.9263283  36.3833542  28.9877694  38.8512779  36.3734193  28.8081388
  40.2053283  37.2173542  30.2417694  41.2749399  37.1898293  30.4497905
  39.7573283  38.6823542  30.0427694  38.6876601  38.7107251  29.8351499
  39.9665438  39.2529263  30.9476323  40.3012336  39.1185502  29.2049140
  39.4023283  36.6113542  31.4037694  39.7138043  35.5788279  31.5618019
  39.5835216  37.1878681  32.3109080  38.3393705  36.6369853  31.1638433
  40.6343283  36.9743542  27.7897694  41.8523283  36.8343542  27.6337694
  39.8763283  37.6243542  26.8957694  38.8867892  37.6488715  27.0965445
  40.3433283  38.2303542  25.6627694  41.4298736  38.2039563  25.5801762
  39.7223283  37.5273542  24.4517694  38.6373436  37.5458229  24.5545678
  40.1263283  38.2293542  23.1377694  41.2112240  38.2108740  23.0340363
  39.6722464  37.7105098  22.2935474  39.7812086  39.2631047  23.1565173
  40.1303283  36.0333542  24.4477694  41.2192720  35.9932072  24.4740519
  39.7286695  35.5837741  25.3558704  39.6203283  35.2603542  23.2267694
  40.0219681  35.7090985  22.3182465  39.9443866  34.2217056  23.2923017
  38.5313650  35.2996674  23.2000639  40.0023283  39.7123542  25.6897694
  38.9123283  40.1043542  26.1177694  40.9403283  40.5923542  25.2807694
  41.8767091  40.2391480  25.1446233  40.7003283  42.0123542  25.0667694
  40.1693502  42.4251011  25.9245581  42.0273283  42.7793542  24.8927694
  42.6830806  42.4649342  25.7046981  42.4524674  42.4636008  23.9400593
  41.8883283  44.3213542  24.9097694  41.2994274  44.6149627  24.0408100
  41.3574465  44.6019340  25.8194609  43.2433283  45.0313542  24.8707694
  44.2933283  44.3383542  24.7887694  43.2273283  46.2863542  24.9247694
  39.8223283  42.2413542  23.8507694  39.9543283  41.5453542  22.8397694
  38.8923283  43.2033542  23.8797694  38.7597181  43.7965984  24.6863518
  38.0593283  43.4173542  22.7357694  38.6077893  43.1889034  21.8219313
  36.8083283  42.5153542  22.7987694  36.2438343  42.7388446  23.7040310
  36.1822149  42.7001128  21.9258739  37.1142722  41.4692428  22.8109556
  37.5973283  44.8323542  22.6727694  37.4603283  45.4963542  23.7127694
  37.3043283  45.3153542  21.4667694  37.5344171  44.7437654  20.6664915
  36.6873283  46.5933542  21.2367694  36.8563275  47.2300498  22.1051917
  37.2603283  47.3003542  19.9867694  37.1707576  46.6011257  19.1554116
  36.6832181  48.1989884  19.7688237  38.7203283  47.6713542  20.1807694
  39.0693283  48.1223542  21.2987694  39.4803283  47.5333542  19.1857694
  35.2043283  46.3453542  21.0417694  34.8023283  45.5493542  20.1817694
  34.3433283  46.9913542  21.8407694  34.7314554  47.6203924  22.5290772
  32.9083283  46.8433542  21.7807694  32.6296037  46.0672023  21.0680282
  32.3473283  46.4633542  23.1687694  32.6105230  47.2356943  23.8914861
  31.2624462  46.3750695  23.1110031  32.7725537  45.5107511  23.4847283
  32.2703283  48.1463542  21.3347694  32.5023283  49.2063542  21.9247694
  31.4373283  48.1183542  20.2777694  31.2837117  47.2433968  19.7971960
  30.7963283  49.3123542  19.7557694  31.4007804  50.1851031  20.0028448
  30.6383283  49.2393542  18.2167694  31.6046181  49.0204986  17.7623626
  29.9104150  48.4930115  17.8986266  30.1803283  50.5623542  17.6437694
  31.0723283  51.6413542  17.5617694  32.0944422  51.5172228  17.9195046
  30.6623283  52.8673542  17.0277694  31.3707624  53.6928349  16.9584626
  29.3483283  53.0353542  16.5837694  29.0317628  53.9861275  16.1549147
  28.4393283  51.9803542  16.6907694  27.4096719  52.1113016  16.3579623
  28.8513283  50.7543542  17.2257694  28.1390655  49.9349264  17.3223086
  29.4373283  49.5583542  20.3957694  28.4503283  48.8753542  20.1017694
  29.3443283  50.5773542  21.2727694  30.1810930  51.0745054  21.5425190
  28.0783283  50.9943542  21.8517694  28.2281361  52.0060214  22.2288454
  27.3559246  51.0145596  21.0357891  27.5403283  50.1343542  22.9597694
  26.3293283  50.0573542  23.1347694  28.4243283  49.4613542  23.7297694
  29.3695890  49.3941375  23.3803934  28.0413283  48.6163542  24.8577694
  27.1291119  48.0459189  24.6829441  29.1573283  47.6673542  25.3237694
  29.5049218  47.1079061  24.4552666  30.3513283  48.4183542  25.9657694
  30.0045778  48.9777020  26.8346737  31.1091682  47.6990109  26.2761316
  30.7812075  49.1073020  25.2386834  28.5733283  46.5483542  26.2277694
  28.5068767  46.9552843  27.2367753  27.5715409  46.3296236  25.8580690
  29.4023283  45.2583542  26.2507694  30.4041736  45.4762199  26.6208241
  28.9240275  44.5301051  26.9057357  29.4688397  44.8505603  25.2421167
  27.3413283  49.3453542  26.0057694  26.3583283  48.8343542  26.5367694
  27.7883283  50.5643542  26.3907694  28.6278277  50.9415144  25.9747281
  27.1743283  51.2943542  27.4797694  26.1929629  50.8836839  27.7171951
  28.0863283  51.1623542  28.7357694  27.4239595  51.5897853  29.4885438
  28.2654087  50.1117812  28.9645195  29.4073283  51.9133542  28.7387694
  30.2373283  51.7613542  27.8047694  29.6763283  52.5713542  29.7757694
  26.8613283  52.7323542  27.1147694  25.8353283  53.2883542  27.5107694
  27.6893283  53.3513542  26.2587694  28.5459108  52.8918828  25.9844486
  27.4263283  54.6703542  25.7427694  26.5805932  55.1196992  26.2632696
  28.6673283  55.5603542  25.9587694  29.0553203  55.3352190  26.9521855
  29.4034999  55.2730224  25.2080418  28.3853283  57.0663542  25.8487694
  28.1553128  57.3069979  24.8108463  27.5285194  57.3112887  26.4764538
  29.6053283  57.8833542  26.3057694  29.7664761  57.6484897  27.3578954
  30.4564145  57.5335888  25.7214614  29.4593283  59.3993542  26.1377694
  29.2760268  59.6304834  25.0884456  28.6202005  59.7501796  26.7385067
  30.7023283  60.0753542  26.5827694  31.4799349  59.7507301  26.0259508
  30.6012722  61.0739573  26.4701662  30.8721315  59.8616599  27.5551894
  27.0703283  54.5733542  24.2687694  27.7693283  53.9193542  23.4897694
  25.9543283  55.2003542  23.8427694  25.4433232  55.7343777  24.5310948
  25.4133283  55.1213542  22.4827694  25.1329466  54.0822258  22.3104397
  24.1903283  55.9953542  22.2707694  24.5113806  57.0369448  22.2814724
  23.4833283  55.6903542  20.9377694  23.1615552  54.6489921  20.9265146
  22.6145628  56.3397256  20.8297770  24.1725534  55.8660756  20.1118207
  23.2433283  55.7533542  23.2947694  22.4725945  56.3084984  23.1555411
  26.3533283  55.4783542  21.3587694  26.8003283  56.6403542  21.2547694
  26.6533283  54.5203542  20.4757694  26.2980704  53.6044455  20.7102955
  27.5623283  54.6383542  19.3507694  27.5761587  53.6231639  18.9541630
  26.9913283  55.5853542  18.2667694  26.9796416  56.6072320  18.6458858
  27.6162130  55.5363365  17.3750202  25.9756323  55.2800357  18.0152908
  29.0103283  54.9823542  19.7187694  29.7403283  55.5853542  18.9287694
  29.4993283  54.5373542  20.8917694  28.9282736  53.9550960  21.4875640
  30.8513283  54.8653542  21.3347694  31.2467791  55.5580244  20.5918523
  30.8853283  55.5423542  22.6977694  30.4698812  54.8432180  23.4235190
  32.2973283  55.9523542  23.1337694  32.7132778  56.6518950  22.4086982
  32.2517466  56.4290431  24.1129472  32.9319602  55.0679433  23.1899862
  30.1633283  56.7633542  22.6797694  30.1999273  57.1695763  23.5488174
  31.6403283  53.5883542  21.4327694  31.2373283  52.6383542  22.1057694
  32.7923283  53.4953542  20.7347694  32.9969347  54.1705989  20.0120799
  33.6893283  52.3633542  20.8937694  33.1047123  51.4438479  20.8649342
  34.7693283  52.3013542  19.7747694  34.3220713  52.5182209  18.8047028
  35.5646235  53.0190107  19.9762011  35.5833283  50.6793542  19.6047694
  36.3855197  51.0306182  18.6037695  34.3123283  52.3263542  22.2807694
  34.6693283  53.3653542  22.8497694  34.4213283  51.1333542  22.8697694
  34.1119900  50.3152186  22.3647314  34.9723283  50.9543542  24.1837694
  35.6116007  51.7964710  24.4488527  33.8183283  50.8713542  25.2037694
  33.3252753  51.8434632  25.2052079  33.1253189  50.1135871  24.8382190
  34.2563283  50.5173542  26.6337694  34.3802905  49.4357370  26.6870478
  35.2149145  51.0019723  26.8191337  33.2513283  50.9643542  27.6837694
  33.1155689  52.0458377  27.6916220  32.2833846  50.4780565  27.5625300
  33.8373283  50.5453542  28.9947694  34.7557199  50.1262382  29.0263618
  33.1653283  50.7003542  30.1437694  31.9493283  51.2063542  30.1447694
  31.5188623  51.4801166  29.2730738  31.4529491  51.3182713  31.0172268
  33.7223283  50.3563542  31.3037694  34.6578273  49.9759123  31.3181121
  33.2066285  50.4775287  32.1636933  35.7723283  49.6793542  24.2687694
  35.2713283  48.6013542  23.9427694  37.0263283  49.7733542  24.7557694
  37.4151013  50.6982453  24.8720940  37.8493283  48.6263542  25.1217694
  37.8774289  47.9694544  24.2524063  39.2833283  48.9953542  25.5017694
  39.2814785  49.4726041  26.4817333  40.1623283  47.7343542  25.5477694
  40.1650421  47.2567811  24.5679652  41.1810961  48.0106922  25.8195207
  39.7647642  47.0405228  26.2884727  39.9373283  49.8663542  24.5837694
  40.8276268  50.0478055  24.8936796  37.2743283  47.8753542  26.3227694
  36.9833283  48.4673542  27.3687694  37.0963283  46.5483542  26.2117694
  37.3977694  46.1342840  25.3412647  36.4703283  45.6903542  27.2017694
  36.4878626  46.1621042  28.1842376  35.0183283  45.3033542  26.8677694
  34.6353730  44.6379721  27.6415336  34.1423283  46.5693542  26.7997694
  34.5244166  47.2350619  26.0258555  33.1158613  46.2892779  26.5630773
  34.1662125  47.0804688  27.7622106  34.9203283  44.5033542  25.5507694
  35.5047431  43.5873289  25.6371348  33.8780821  44.2516454  25.3546440
  35.3088834  45.1055361  24.7294882  37.2853283  44.4253542  27.3807694
  38.1913283  44.1213542  26.5947694  37.0013283  43.6473542  28.4357694
  36.3575496  44.0049970  29.1269567  37.5883283  42.3513542  28.6557694
  38.3184898  42.0929840  27.8888220  38.2833283  42.3013542  30.0367694
  37.5625257  42.5489486  30.8160259  38.6756999  41.2993868  30.2105689
  39.1021983  43.0204439  30.0582429  36.4703283  41.3363542  28.5547694
  35.3933283  41.5093542  29.1557694  36.6563283  40.2743542  27.7677694
  37.5714343  40.1718364  27.3528350  35.6563283  39.2673542  27.4817694
  34.7053301  39.5203361  27.9504928  35.4323283  39.1043542  25.9817694
  36.3546721  38.7520999  25.5199274  34.3043283  38.0873542  25.7167694
  33.3814851  38.4391726  26.1779474  34.1553440  37.9810079  24.6422488
  34.5775211  37.1218348  26.1424919  35.0913283  40.4773542  25.3727694
  35.9162367  41.1680117  25.5477563  34.9296268  40.3696290  24.3002268
  34.1864561  40.8674642  25.8387322  36.0983283  37.9363542  28.0217694
  37.1253283  37.3833542  27.6067694  35.3333283  37.3643542  28.9577694
  34.5681419  37.8982197  29.3445208  35.5863283  36.0543542  29.4887694
  36.6302328  35.7903725  29.3194288  35.3053283  36.0003542  30.9957694
  35.8087928  36.8576081  31.4426905  34.2277695  36.1066080  31.1209780
  35.7763283  34.7123542  31.6877694  35.0832759  33.8981776  31.4758837
  36.7723082  34.4414440  31.3374355  35.8183283  34.9673542  33.2007694
  36.5960057  35.7169422  33.3471750  34.8482337  35.3976392  33.4495076
  36.0913283  33.7643542  34.1097694  35.3652139  32.9771733  33.9067801
  37.0971578  33.3859211  33.9275752  35.9733283  34.1923542  35.5247694
  35.0412444  34.5426531  35.6939140  36.1520121  33.4044075  36.1308322
  36.6463690  34.9214732  35.7131860  34.7643283  35.0353542  28.7557694
  33.5623283  35.2223542  28.5177694  35.3993283  33.9383542  28.3517694
  36.3755225  33.8230456  28.5838214  34.7643283  32.9243542  27.5687694
  33.7370223  32.7892855  27.9071450  34.7443283  33.3183542  26.0717694
  34.1780026  32.5478664  25.5485840  34.2151479  34.2686477  26.0009849
  36.1363283  33.4573542  25.4287694  36.7742251  33.9946362  26.1305647
  36.5322928  32.4537253  25.2737106  36.1153283  34.3403542  23.8467694
  35.3473283  33.0223542  22.8657694  34.3669985  32.7852670  23.2790999
  35.2351930  33.3550721  21.8338658  35.9775712  32.1334771  22.8939236
  35.4973283  31.6333542  27.7587694  36.5593283  31.5723542  28.3937694
  34.9373283  30.5453542  27.2267694  33.9932841  30.6062974  26.8729816
  35.5923283  29.2633542  27.2067694  36.1774773  29.1494384  28.1193060
  34.5863283  28.1003542  27.1187694  34.1216753  28.2223025  26.1403393
  35.1168041  27.1487437  27.1524286  33.4993283  28.1203542  28.2087694
  32.8863581  29.0151584  28.1006318  32.6183283  26.8773542  28.0577694
  33.2305597  25.9820874  28.1662544  31.8454088  26.8836541  28.8263112
  32.1509006  26.8801136  27.0730846  34.0643283  28.2103542  29.6407694
  34.6469724  29.1256271  29.7451762  33.2421742  28.2200128  30.3563605
  34.7037753  27.3491296  29.8344155  36.5943283  29.1703542  26.0717694
  36.6153283  29.9803542  25.1367694  37.4683283  28.1633542  26.1257694
  37.5174366  27.6176461  26.9742330  38.3553283  27.8233542  25.0427694
  38.0556861  28.3910820  24.1618614  39.8443283  28.1323542  25.3487694
  40.4270383  27.6765558  24.5482720  39.9521944  29.2160896  25.3042440
  40.3513283  27.6243542  26.7017694  39.7745195  28.1173892  27.4842711
  40.1765293  26.5493245  26.7448809  41.8453283  27.9083542  26.9117694
  41.9860127  28.9689992  26.7035889  42.0469060  27.7155804  27.9654791
  42.8093283  27.0863542  26.0487694  42.7143274  27.4005338  25.0093626
  43.8301381  27.2609460  26.3887170  42.4933283  25.6473542  26.1587694
  41.5476091  25.4852960  25.8434091  43.1346427  25.1171370  25.5863311
  42.5817147  25.3559294  27.1217640  38.2193283  26.3533542  24.7577694
  37.5853283  25.6153542  25.5157694  38.8193283  25.8953542  23.6417694
  39.2297727  26.5867694  23.0305577  38.8613283  24.5043542  23.2327694
  37.8591206  24.1514569  22.9895774  39.7563283  24.3613542  21.9737694
  39.3863778  25.0840934  21.2465254  40.7660049  24.6371676  22.2780393
  39.7773283  22.9513542  21.3347694  40.4056709  23.0302452  20.4476039
  40.2038016  22.2161729  22.0172122  38.3753283  22.5123542  20.9267694
  37.5593283  23.3963542  20.5647694  38.1073283  21.2913542  21.0377694
  39.3563283  23.5693542  24.3297694  40.3503283  23.8623542  25.0147694
  38.6163283  22.4563542  24.5287694  37.8901669  22.2923503  23.8462068
  38.7723283  21.4983542  25.6147694  38.6568717  20.5001608  25.1924201
  39.7818526  21.6104409  26.0102396  37.7803283  21.6733542  26.7417694
  37.6493283  20.7893542  27.5777694  37.0503283  22.8083542  26.8027694
  37.3191528  23.5840892  26.2144940  35.9533283  23.0003542  27.7387694
  36.3694004  22.7517929  28.7150893  35.5013283  24.4723542  27.7567694
  35.0740150  24.7336235  26.7886570  34.7507240  24.6130017  28.5345300
  36.3588557  25.1138309  27.9598791  34.7373283  22.1063542  27.5017694
  34.4023283  21.7653542  26.3627694  34.0293283  21.7073542  28.5757694
  34.4797853  21.7958799  29.4754088  32.8003283  20.9373542  28.4937694
  32.6761667  20.7326712  27.4303843  32.7713283  19.5923542  29.2637694
  32.0632170  18.9146232  28.7869472  34.1713283  18.9643542  29.2457694
  34.8799516  19.6413528  29.7228706  34.1527345  18.0183317  29.7868747
  34.4771715  18.7866602  28.2147576  32.4543283  19.5933542  30.6557694
  32.4762096  18.6935230  30.9895739  31.5953283  21.8093542  28.7467694
  31.6743283  23.0183542  29.0297694  30.3873283  21.2363542  28.6317694
  30.3306651  20.3239090  28.2024299  29.1543283  21.8833542  29.0367694
  29.0665478  22.8467272  28.5344686  27.9313283  21.0233542  28.6687694
  27.8908633  20.7162345  27.6237147  27.9466397  20.1394207  29.3063642
  26.6553283  21.7313542  28.9537694  26.4253283  22.9353542  28.3247694
  26.9930220  23.4115492  27.6384299  25.2863283  23.3583542  28.8067694
  24.9178965  24.3125131  28.4300231  24.7613283  22.4963542  29.7177694
  25.6523283  21.4453542  29.8107694  25.4488341  20.6167420  30.4890711
  29.1133283  22.1993542  30.5407694  28.4083283  23.0963542  30.9917694
  29.8853283  21.4683542  31.3797694  30.3366887  20.6339173  31.0332320
  30.0013283  21.7783542  32.8017694  28.9994349  21.9060175  33.2116606
  30.7243283  20.6753542  33.6017694  31.6704231  20.4451683  33.1118527
  30.9174185  21.0389359  34.6110387  29.9193283  19.4903542  33.6667694
  30.3834468  18.8152908  34.1672524  30.6633283  23.1153542  33.0717694
  30.1643283  23.8953542  33.8867694  31.7513283  23.4563542  32.3527694
  32.2241535  22.7242260  31.8423539  32.3553283  24.7783542  32.3797694
  32.4778009  25.0874520  33.4178244  33.7403283  24.8113542  31.6867694
  33.6243756  24.3602479  30.7012963  34.0261920  25.8573138  31.5756370
  34.8423283  24.0553542  32.4747694  35.7824914  24.3462326  32.0061716
  34.8615079  24.3319880  33.5289065  34.6573283  22.5473542  32.3487694
  34.5943283  22.0733542  31.1857694  34.4953283  21.8713542  33.3897694
  31.4453283  25.8773542  31.8187694  31.4013283  26.9883542  32.3317694
  30.6533283  25.5713542  30.7597694  30.8145258  24.6896634  30.2942202
  29.6463283  26.4753542  30.2037694  30.1114486  27.4279424  29.9501201
  29.0113283  25.8783542  28.9237694  29.7744424  25.7640060  28.1539119
  28.5739016  24.9055645  29.1483537  27.9233283  26.7083542  28.3267694
  28.1823283  27.5443542  27.2557694  29.0510565  27.7093979  26.7677410
  27.0263283  28.1063542  26.9857694  27.0099811  28.8110747  26.1543846
  26.0383283  27.6893542  27.8207694  26.6223283  26.7873542  28.6837694
  26.0234360  26.3074195  29.4577797  28.5603283  26.8403542  31.2037694
  28.1653283  27.9953542  31.3327694  28.0863283  25.8423542  31.9817694
  28.3140215  24.8908318  31.7310499  27.2153283  26.0643542  33.1237694
  26.3233100  26.5985462  32.7965977  26.7803283  24.7283542  33.7787694
  27.6709202  24.1071608  33.8739751  26.3936519  24.9626185  34.7705867
  25.7083283  23.9683542  32.9767694  24.9257637  24.6861923  32.7310012
  26.1833859  23.6211891  32.0592190  25.0913283  22.7723542  33.7177694
  24.8625640  23.0243495  34.7532713  24.1860512  22.4238152  33.2206845
  26.1123283  21.6553542  33.7047694  27.0249430  21.9078656  34.0561548
  25.9113283  20.3943542  33.2927694  24.7143283  19.9913542  32.8727694
  23.9412088  20.6411762  32.8619313  24.5846412  19.0375799  32.5668354
  26.9083283  19.5053542  33.2757694  27.8320012  19.7812065  33.5771562
  26.7338742  18.5614443  32.9616062  27.8353283  26.9483542  34.1967694
  27.1883283  27.8633542  34.6917694  29.1233283  26.7263542  34.5437694
  29.5864716  25.9052332  34.1813359  29.8463283  27.5673542  35.4787694
  29.2948660  27.5568190  36.4189170  31.2503283  26.9743542  35.7237694
  31.8178938  26.9865435  34.7932744  31.7708285  27.5695369  36.4740609
  31.1550566  25.9476613  36.0772158  29.9493283  29.0273542  35.0267694
  29.6973283  29.9443542  35.8067694  30.2583283  29.2713542  33.7357694
  30.5637434  28.4880308  33.1761039  30.3083283  30.6013542  33.1467694
  30.9178509  31.2609993  33.7643856  30.9343283  30.5303542  31.7307694
  31.8775432  30.0147585  31.9113408  30.3109162  29.9261045  31.0717249
  31.2143283  31.8993542  31.0637694  30.2558859  32.3904008  30.8953586
  32.1133283  32.8093542  31.9227694  33.0721902  32.3191457  32.0912282
  32.2751616  33.7546064  31.4046873  31.6294969  32.9989663  32.8809212
  31.8113283  31.7263542  29.6557694  31.1114766  31.1733860  29.0292446
  31.9958494  32.7064224  29.2158609  32.7500614  31.1765589  29.7236244
  28.9553283  31.3293542  33.1407694  28.8643283  32.5253542  33.4257694
  27.8393283  30.6173542  32.8567694  27.9535669  29.6784798  32.5024196
  26.4873283  31.1543542  32.9697694  26.4156450  32.0791034  32.3972316
  25.4373283  30.1523542  32.4257694  25.7438090  29.8973056  31.4113144
  25.4950423  29.2649929  33.0561336  23.9813283  30.6783542  32.4077694
  23.3842084  29.9134908  31.9112489  23.6714018  30.7611010  33.4494990
  23.7173283  32.2813542  31.5737694  24.3363283  31.8053542  29.9387694
  23.7401866  30.9796669  29.5502407  24.2639955  32.6556405  29.2606235
  25.3777135  31.4939949  30.0204619  26.1103283  31.5443542  34.3957694
  25.5033283  32.5823542  34.6497694  26.4993283  30.7043542  35.3747694
  26.8086361  29.7800901  35.1098845  26.3763283  31.0113542  36.7937694
  25.3519201  31.3221112  36.9989937  26.7133283  29.8003542  37.6897694
  27.7211065  29.4492969  37.4678657  26.6534282  30.0921395  38.7382795
  25.7753283  28.7503542  37.4327694  25.9809246  27.9946439  37.9879558
  27.1873283  32.2313542  37.2147694  26.6803283  33.0823542  37.9407694
  28.4353283  32.3963542  36.7127694  28.8365287  31.6028269  36.2337578
  29.2653283  33.5863542  36.8987694  29.4060399  33.7714437  37.9636832
  30.6623283  33.3973542  36.2377694  31.1870396  32.6538398  36.8377390
  30.4779863  32.9952673  35.2415545  31.5303283  34.6763542  36.1257694
  31.0352302  35.3131928  35.3926833  31.5220543  35.1684702  37.0983189
  32.9573283  34.4323542  35.6977694  33.3853283  33.2863542  35.4157694
  33.7033283  35.4483542  35.6597694  28.5943283  34.8533542  36.3907694
  28.5333283  35.8593542  37.1057694  27.9743283  34.8183542  35.1897694
  28.0800912  33.9919224  34.6188717  27.2003283  35.9283542  34.6587694
  27.8280470  36.8122251  34.5454525  26.6403283  35.5343542  33.2627694
  27.5550471  35.4619868  32.6744228  26.1623454  34.5559910  33.3121438
  25.6783283  36.5443542  32.5967694  24.8162919  36.6672947  33.2524215
  26.3333283  37.9133542  32.3497694  27.1952291  37.7912783  31.6937790
  25.6120763  38.5824252  31.8804718  26.6576706  38.3382233  33.2997108
  25.0803283  35.9683542  31.3007694  24.5260642  35.0579729  31.5290161
  24.4075793  36.7002742  30.8537760  25.8832470  35.7383223  30.6004081
  26.0523283  36.3393542  35.5797694  25.8803283  37.5063542  35.9167694
  25.2763283  35.3553542  36.0707694  25.3961252  34.4311281  35.6814698
  24.2033283  35.5663542  37.0237694  23.5536835  36.3773890  36.6947051
  23.3713283  34.2853542  37.1297694  24.0429106  33.4334284  37.2360656
  22.7275701  34.3515138  38.0068659  22.5093283  34.1023542  35.8767694
  21.7742889  34.9066583  35.8465562  23.1571825  34.1698984  35.0027987
  21.7893283  32.7543542  35.8737694  22.5222682  31.9790800  35.6505027
  21.3770335  32.5880659  36.8689883  20.6663283  32.7033542  34.8437694
  20.0811965  33.6219011  34.8884112  21.0857879  32.5885966  33.8442778
  19.7963283  31.5513542  35.1467694  19.4072052  31.6577094  36.0727130
  19.0478723  31.5075386  34.4700171  20.3382382  30.7000663  35.1050362
  24.6333283  36.0583542  38.3927694  23.9623283  36.9043542  38.9937694
  25.7673283  35.5793542  38.9317694  26.1705884  34.7479531  38.5240281
  26.3673283  36.1133542  40.1457694  25.6407553  36.1904524  40.9546246
  27.5433283  35.2503542  40.5987694  28.1758516  35.0555466  39.7327066
  28.3793283  35.9403542  41.7027694  27.7475511  36.1350761  42.5693959
  29.2044974  35.2904533  41.9940177  28.7757363  36.8823311  41.3237717
  27.0453283  33.8633542  41.0817694  26.6260167  33.9864518  42.0803311
  26.2638197  33.5308468  40.3985545  28.1673283  32.8163542  41.1237694
  28.9490429  33.1479698  41.8071824  27.7638526  31.8642978  41.4685813
  28.5868475  32.6923666  40.1254055  26.7513283  37.5863542  39.9927694
  26.4243283  38.4033542  40.8457694  27.3873283  37.9833542  38.8637694
  27.7470714  37.2756006  38.2394544  27.6893283  39.3803542  38.5727694
  28.2027114  39.8280641  39.4237059  28.5983283  39.5013542  37.3277694
  28.1234192  38.8543681  36.5902265  28.6011993  40.5279832  36.9615392
  30.0523283  39.0343542  37.5617694  30.0375105  38.0673280  38.0645036
  30.7993283  38.9043542  36.2217694  30.8149633  39.8711566  35.7186319
  31.8218053  38.5744907  36.4057032  30.2908101  38.1752501  35.5909629
  30.8083283  39.9743542  38.5227694  30.2977068  39.9977854  39.4854823
  31.8266714  39.6110579  38.6609518  30.8356627  40.9795014  38.1020190
  26.4573283  40.2693542  38.4337694  26.4213283  41.3793542  38.9687694
  25.3873283  39.7903542  37.7627694  25.5011980  38.9562359  37.2047553
  24.0973283  40.4823542  37.7217694  24.2397918  41.5190999  37.4168733
  23.1073283  39.8003542  36.7677694  23.0028927  38.7553548  37.0596084
  21.7203283  40.4923542  36.8197694  21.8238892  41.5373453  36.5275891
  21.0372099  39.9900919  36.1348004  21.3236998  40.4366644  37.8335167
  23.6453283  39.8113542  35.3177694  23.5454014  40.8300588  34.9431278
  24.7008430  39.5429786  35.3620724  22.9123283  38.8473542  34.3777694
  21.8567680  39.1154045  34.3325896  23.3460963  38.9119443  33.3798853
  23.0122078  37.8283239  34.7515358  23.4633283  40.6463542  39.1077694
  22.9863283  41.7303542  39.4517694  23.4703283  39.5853542  39.9477694
  23.8382552  38.7184650  39.5827595  22.9823283  39.6053542  41.3237694
  21.9418413  39.9299689  41.3343133  23.0693283  38.2013542  41.9717694
  22.4376600  37.4428807  41.5093710  24.1161441  37.9185350  41.8609087
  22.7693283  38.1713542  43.4447694  21.4683283  38.3203542  43.8927694
  21.5663283  38.3563542  45.2017694  20.6334722  38.4609360  45.7557920
  22.8503283  38.2533542  45.6307694  23.2060727  38.2586188  46.5760303
  23.6233283  38.1343542  44.4957694  24.7055476  38.0363799  44.5812315
  23.7433283  40.5463542  42.2427694  23.1413283  41.2653542  43.0417694
  25.0883283  40.5693542  42.1827694  25.5397215  39.8747928  41.6049043
  25.9303283  41.4623542  42.9797694  25.6741162  41.4001397  44.0374007
  27.4143283  41.1373542  42.7947694  27.5800751  40.9793074  41.7291008
  28.3703283  42.2483542  43.3077694  28.2054804  42.4066526  44.3735402
  29.4038069  41.9442978  43.1417196  28.1736908  43.1750592  42.7686491
  27.7213283  39.8053542  43.5097694  27.8369249  40.0110756  44.5739202
  26.8734350  39.1370907  43.3594356  28.9933283  39.1423542  42.9777694
  29.8417897  39.8098779  43.1281861  29.1674429  38.2082536  43.5118475
  28.8783005  38.9358950  41.9137003  25.6343283  42.9163542  42.6707694
  25.3813283  43.7073542  43.5787694  25.5453283  43.2763542  41.3757694
  25.6532462  42.5796203  40.6525716  25.2963283  44.6493542  40.9767694
  24.8508794  44.6304674  39.9821249  24.5860637  45.0771118  41.6843335
  26.5313283  45.5073542  40.9437694  27.6613283  45.0533542  41.1017694
  26.3443283  46.8063542  40.6707694  25.4059739  47.1617804  40.5556063
  27.4483283  47.7183542  40.4907694  28.2542613  47.2304044  39.9426122
  26.9803283  48.9473542  39.6877694  26.7533733  48.7107910  38.6482366
  26.0802161  49.3138400  40.1813138  27.9443283  50.0793542  39.6657694
  29.0543283  49.9813542  38.8597694  29.3153669  49.2420862  38.2230266
  29.7353283  51.0783542  39.0877694  30.6637596  51.2045492  38.5308231
  29.1303283  51.8783542  40.0097694  27.9733283  51.2263542  40.3807694
  27.3088904  51.6735213  41.1201374  28.0663283  48.1923542  41.7827694
  27.3873283  48.6383542  42.7077694  29.4043283  48.1813542  41.8247694
  29.9117872  47.6362982  41.1424947  30.1493283  48.8703542  42.8317694
  29.5948343  49.7608823  43.1277345  30.4003283  48.0053542  44.0867694
  29.4879373  47.5276981  44.4438219  31.1288229  47.2405430  43.8175863
  30.9713283  48.7493542  45.2417694  32.3423283  48.8513542  45.4007694
  33.0806341  48.5126231  44.8005481  32.5033283  49.5023542  46.5327694
  33.5286839  49.6856045  46.8539613  31.3153283  49.8343542  47.1067694
  30.3323283  49.3493542  46.2697694  29.2817666  49.4973791  46.5197894
  31.4303283  49.2823542  42.1657694  31.8923283  48.6163542  41.2267694
  32.0413283  50.3943542  42.5927694  31.5714443  50.9068852  43.3253131
  33.2793283  50.9353542  42.0587694  33.1756277  51.1553240  40.9962447
  33.6133283  52.2513542  42.8067694  32.7752935  52.8960423  42.5418655
  33.6001077  52.0617672  43.8800737  34.9403283  52.9473542  42.4227694
  35.7525808  52.2601857  42.6597212  35.0153283  53.3363542  40.9357694
  34.2036081  54.0239214  40.6981556  35.9711520  53.8198384  40.7339159
  34.9244229  52.4412277  40.3204767  35.1753283  54.1833542  43.3057694
  35.2250035  53.8794204  44.3513583  36.1132798  54.6604650  43.0216681
  34.3545857  54.8879176  43.1713415  34.4473283  49.9613542  42.1687694
  35.2923283  49.8743542  41.2707694  34.4943283  49.1933542  43.2757694
  33.7176088  49.2732341  43.9164139  35.5963283  48.3343542  43.6397694
  36.4774742  48.5786352  43.0464668  35.9363283  48.5343542  45.1347694
  35.0757099  48.2611265  45.7453280  36.7961353  47.9328869  45.4298442
  36.2613283  50.0013542  45.3807694  35.6363283  50.6733542  46.2117694
  37.2523283  50.5193542  44.6227694  37.5174171  51.4873152  44.7362562
  37.7236706  49.9363276  43.9459997  35.3203283  46.8703542  43.3437694
  36.0493283  45.9923542  43.8027694  34.2983283  46.5663542  42.5287694
  33.6784816  47.3197851  42.2675585  34.0203283  45.2373542  42.0157694
  34.7796386  44.5315312  42.3524607  32.6433283  44.7193542  42.4487694
  31.8996479  45.4705595  42.1828198  32.2843283  43.3763542  41.7707694
  33.0273578  42.6244773  42.0366440  31.3007653  43.0497572  42.1084656
  32.2715030  43.5070201  40.6887049  32.6423283  44.5623542  43.9837694
  32.8399646  45.5283334  44.4484479  31.6699913  44.1943612  44.3112468
  33.4163253  43.8533045  44.2775006  34.1033283  45.4003542  40.5127694
  33.6783283  46.4283542  39.9827694  34.7083283  44.4513542  39.7687694
  35.2455942  43.7382422  40.2409093  34.7763283  44.5183542  38.3107694
  35.1657541  45.4584418  37.9200238  35.5973283  43.3623542  37.7177694
  36.5682899  43.3593463  38.2130711  34.9213283  41.9783542  37.8977694
  33.9504473  41.9804418  37.4023033  35.5515926  41.2055799  37.4576702
  34.7861167  41.7748636  38.9600364  35.9583283  43.6453542  36.2427694
  36.5464737  44.5610045  36.1813568  36.5392660  42.8135777  35.8443238
  35.0443450  43.7614664  35.6603149  33.4163283  44.6693542  37.6277694
  32.4833283  43.8863542  37.8307694  33.2323283  45.7343542  36.8267694
  34.0056043  46.3483928  36.6144013  31.9293283  46.0613542  36.2897694
  31.1666977  45.8960945  37.0508101  31.8743283  47.5493542  35.8467694
  32.7148666  47.7318248  35.1772179  30.9402475  47.6799250  35.3003773
  31.9233283  48.5743542  36.9847694  31.8803283  49.7883542  36.7187694
  31.9963283  48.1543542  38.2607694  32.0286072  48.8302276  39.0106047
  32.0185211  47.1650745  38.4630907  31.5263283  45.1863542  35.1047694
  32.1613283  45.1903542  34.0517694  30.4163283  44.4293542  35.2587694
  30.0816379  44.3014609  36.2030813  29.7143283  43.7563542  34.1837694
  30.4097330  43.1444929  33.6091937  28.6093283  42.8373542  34.7647694
  29.1755088  42.1819183  35.4265418  27.8927312  43.4131111  35.3505106
  27.8553283  41.9873542  33.7217694  27.4821357  42.6597992  32.9493409
  28.7463283  40.9093542  33.0767694  29.1195467  40.2362088  33.8485739
  28.1634779  40.3418671  32.3512733  29.5874498  41.3859644  32.5733234
  26.5903283  41.3783542  34.3427694  25.9351049  42.1769399  34.6906812
  26.0689277  40.7812892  33.5946009  26.8675006  40.7438173  35.1845755
  29.1063283  44.7503542  33.2027694  28.4043283  45.6833542  33.6107694
  29.3493283  44.5803542  31.8917694  29.9264748  43.8030759  31.6039505
  28.8363283  45.4693542  30.8707694  28.3203499  46.3120580  31.3308952
  30.0043283  46.0123542  30.0157694  30.4744684  45.1119067  29.6204696
  29.6156567  46.6104434  29.1915585  31.0483283  46.8353542  30.8007694
  31.4601915  46.2272541  31.6061785  32.1793283  47.2643542  29.8537694
  31.7682775  47.8729197  29.0482981  32.9167529  47.8454770  30.4074859
  32.6565720  46.3794855  29.4326444  30.4243283  48.0513542  31.5087694
  29.6647169  47.7120804  32.2130302  31.1998522  48.5968188  32.0464796
  29.9659096  48.7074815  30.7688720  27.8513283  44.7583542  29.9667694
  26.9253283  45.3703542  29.4447694  27.9743283  43.4343542  29.7767694
  28.7077733  42.8893589  30.2070459  27.0223283  42.7523542  28.9227694
  26.0346658  42.7983526  29.3815788  26.9949501  43.2477297  27.9522268
  27.4003283  41.3243542  28.7277694  28.3803283  40.8363542  29.2937694
  26.6343283  40.6033542  27.9067694  25.8050325  41.0079873  27.4961115
  26.9363283  39.2283542  27.6177694  28.0174627  39.0915727  27.6409755
  26.2993283  38.2893542  28.6577694  25.2159762  38.4082423  28.6400524
  26.5549247  37.2566703  28.4204198  26.6753389  38.5372354  29.6503772
  26.4553283  38.8573542  26.2407694  25.5883283  39.5093542  25.6677694
  27.0453283  37.7953542  25.6717694  27.8471186  37.3730327  26.1177249
  26.5693283  37.2223542  24.4317694  25.7289438  37.8135099  24.0679177
  27.6773283  37.1983542  23.3297694  28.4552370  36.4863274  23.6054055
  27.2403510  36.9066537  22.3747502  28.5293283  38.7913542  23.0327694
  29.3392254  38.3401697  22.0791461  26.1443283  35.8023542  24.7697694
  27.0073283  34.9343542  24.9817694  24.8293283  35.5173542  24.8557694
  24.1793652  36.2621837  24.6487036  24.2923283  34.2353542  25.3147694
  25.1530704  33.6188137  25.5738063  23.3623283  34.3183542  26.5357694
  23.2360375  33.3295096  26.9766065  23.9973283  35.2583542  27.5647694
  24.1235153  36.2475880  27.1247774  23.3510642  35.3301163  28.4395791
  24.9699761  34.8673029  27.8633255  22.0553283  34.8383542  26.3167694
  21.5695364  34.8420604  27.1447747  23.5723283  33.4993542  24.2247694
  23.3133283  32.2953542  24.3567694  23.2753283  34.1623542  23.0887694
  23.5824948  35.1181488  22.9782947  22.4893283  33.5623542  22.0207694
  21.4907463  33.3478036  22.4014284  22.3593283  34.4833542  20.7797694
  23.3636772  34.7914076  20.4891054  21.9132202  33.8964642  19.9768699
  21.5023283  35.7223542  21.0417694  20.5209364  35.3803739  21.3704335
  21.9770331  36.2874107  21.8439343  21.3433283  36.6233542  19.8047694
  21.1917869  37.6429427  20.1591328  22.2734219  36.5703992  19.2388885
  20.1733283  36.2173542  18.9027694  20.4079208  35.2686144  18.4201103
  19.2767741  36.1025816  19.5119631  19.9383283  37.2523542  17.8687694
  20.7688321  37.3585541  17.3038935  19.1654682  36.9724915  17.2818588
  19.7205133  38.1314568  18.3157977  23.0343283  32.2203542  21.5097694
  24.2513283  32.1363542  21.2937694  22.2153283  31.1773542  21.2787694
  20.7713283  31.1823542  21.5457694  20.2987163  31.8809824  20.8553661
  20.6143030  31.5218289  22.5695853  20.3073283  29.7403542  21.3317694
  19.2886632  29.7154774  20.9447275  20.3552379  29.1769845  22.2636603
  21.3073283  29.1923542  20.3097694  20.9844157  29.3226906  19.2768905
  21.4648166  28.1324786  20.5096716  22.6143283  29.9733542  20.5527694
  23.2374778  29.3948900  21.2347974  23.3713283  30.2113542  19.2527694
  23.2053283  31.2593542  18.6267694  24.2213283  29.2503542  18.8347694
  24.3163713  28.4169306  19.3973273  25.0123283  29.3533542  17.6087694
  25.2108590  28.3386870  17.2636095  24.4023842  29.8747172  16.8710376
  26.3173283  30.0803542  17.7657694  27.0773283  30.2203542  16.8107694
  26.6533283  30.5353542  18.9807694  25.9781177  30.5355074  19.7318952
  27.9843283  31.0373542  19.2537694  28.7137709  30.5334746  18.6196416
  28.0259233  32.1112719  19.0719182  28.3213283  30.7723542  20.6907694
  27.4373283  30.3943542  21.4607694  29.5583283  30.9733542  21.1147694
  30.6663283  31.4013542  20.2657694  30.3435673  32.2401496  19.6490459
  30.9678284  30.5737803  19.6236494  31.7553283  31.7913542  21.2627694
  31.6398281  32.8248367  21.5893770  32.7485885  31.6548577  20.8350962
  31.5173283  30.8133542  22.4117694  31.9002176  31.2474928  23.3353594
  31.9507062  29.8234203  22.2692415  29.9853283  30.7103542  22.4787694
  29.6477821  29.7132572  22.7615385  29.4143283  31.7263542  23.4407694
  29.1343283  32.8673542  23.0477694  29.2083283  31.3223542  24.7027694
  29.2250273  30.3281565  24.8799457  28.9203283  32.2083542  25.8037694
  28.0677583  32.8458321  25.5695783  28.5783283  31.3663542  27.0457694
  27.7067596  30.7945815  26.7271108  29.3999440  30.6840752  27.2638134
  28.2303283  32.1683542  28.3087694  29.1114079  32.7494192  28.5810982
  27.0323283  33.1123542  28.1217694  26.1507012  32.5319251  27.8498605
  26.8418162  33.6471812  29.0522349  27.2534778  33.8285191  27.3303776
  27.9883283  31.1873542  29.4597694  28.8892507  30.5982633  29.6312634
  27.7398993  31.7421362  30.3645352  27.1633626  30.5225065  29.2038239
  30.0933283  33.1353542  26.0897694  31.2433283  32.7033542  26.1767694
  29.8173283  34.4413542  26.2237694  28.8518987  34.7353749  26.1838094
  30.8263283  35.4403542  26.4747694  31.7520262  34.9538462  26.7821658
  31.1063283  36.2783542  25.2057694  30.1409795  36.6355482  24.8471425
  31.7137999  37.1274469  25.5190101  31.8263283  35.5223542  24.0737694
  32.8435301  35.3052233  24.3997379  31.2954370  34.5874172  23.8944671
  31.8853283  36.4833542  22.5277694  33.1573283  35.5043542  21.6857694
  32.8123102  34.4761596  21.5767858  33.3501827  35.9287049  20.7004601
  34.0755097  35.5186314  22.2730004  30.3123283  36.3893542  27.5267694
  29.1853283  36.8823542  27.4297694  31.1263283  36.6823542  28.5497694
  32.0291767  36.2301173  28.5708867  30.7833283  37.5833542  29.6327694
  29.7528611  37.9323607  29.5662036  30.9823283  36.9033542  30.9877694
  32.0079649  36.5370288  31.0322061  30.7253283  37.8603542  32.1747694
  29.6996779  38.2267553  32.1312678  30.8805346  37.3268123  33.1125032
  31.4143468  38.7030803  32.1184848  30.0553283  35.6703542  31.0727694
  30.3027044  34.9732752  30.2721521  30.1907327  35.1790750  32.0363098
  29.0175902  35.9875576  30.9698981  31.6763283  38.7963542  29.4967694
  32.9103283  38.6883542  29.5267694  31.1003283  39.9903542  29.2967694
  30.0978099  40.0662953  29.3931492  31.8483283  41.1793542  28.9397694
  32.8716693  40.9143367  28.6739909  31.2023283  41.9353542  27.7827694
  30.2193729  42.2986614  28.0826143  32.0993283  43.1323542  27.4047694
  33.0823794  42.7697822  27.1043483  31.6463321  43.6797610  26.5781855
  32.2039051  43.7943997  28.2643382  30.9673283  41.0253542  26.5507694
  31.9210245  40.9056373  26.0367341  30.6255366  40.0553676  26.9118843
  29.9313283  41.6023542  25.5777694  30.2726685  42.5721988  25.2158466
  29.8069151  40.9235290  24.7340769  28.9771807  41.7219313  26.0909979
  31.9173283  42.0953542  30.1427694  30.8953283  42.5203542  30.6957694
  33.1343283  42.4423542  30.5817694  33.9425273  42.0604423  30.1116024
  33.3473283  43.2753542  31.7417694  32.4250613  43.7657287  32.0533068
  33.9383283  42.5313542  32.9467694  34.0238269  43.2225495  33.7852432
  33.0283283  41.3483542  33.3457694  32.9427175  40.6564455  32.5078946
  33.4600434  40.8298328  34.2018408  32.0392693  41.7229471  33.6094816
  35.3843283  42.0573542  32.6817694  36.0169580  42.9195475  32.4708087
  35.7631154  41.5358100  33.5607527  35.3947782  41.3817378  31.8264717
  34.2363283  44.4273542  31.3377694  34.8053283  44.4583542  30.2387694
  34.3603283  45.4513542  32.1997694  33.7234813  45.5022219  32.9820338
  35.2783283  46.5503542  31.9897694  35.0744946  47.0054337  31.0205152
  35.1383283  47.6393542  33.0887694  35.7298650  48.4927954  32.7573760
  34.0848141  47.9174911  33.1178855  35.5993283  47.2103542  34.5077694
  34.9361982  46.3791142  34.7473512  36.6287615  46.8540452  34.4702133
  35.4733283  48.2843542  35.5787694  35.8743283  49.4543542  35.3707694
  35.0253283  47.9143542  36.6987694  36.7343283  46.1353542  31.8487694
  37.2223283  45.2133542  32.5037694  37.4793283  46.8103542  30.9557694
  37.0362619  47.4528163  30.3146501  38.9033283  46.6203542  30.8567694
  39.1631763  45.5773849  31.0378590  39.3653283  47.0043542  29.4327694
  38.8937074  46.3701312  28.6821469  39.1150167  48.0468301  29.2360763
  40.8433283  46.8743542  29.2357694  41.4233283  45.6293542  28.9687694
  40.7959106  44.7392836  28.9216388  42.8023283  45.5243542  28.7627694
  43.2449058  44.5500711  28.5554088  43.6123283  46.6613542  28.8217694
  44.6875598  46.5781097  28.6635054  43.0393283  47.9083542  29.0847694
  43.6650567  48.8000017  29.1238700  41.6623283  48.0113542  29.2977694
  41.2154315  48.9816352  29.5144211  39.5733283  47.4813542  31.9147694
  39.2213283  48.6533542  32.0867694  40.5503283  46.9263542  32.6447694
  40.8008280  45.9647144  32.4642197  41.2583283  47.6343542  33.6847694
  40.8502957  48.6416369  33.7683766  41.1313283  46.9323542  35.0617694
  41.4518867  45.8927070  34.9948709  41.7284680  47.4484857  35.8135224
  39.4303283  46.8953542  35.7067694  39.7226327  46.2508460  36.8328536
  42.7103283  47.6913542  33.2757694  43.3713283  46.6583542  33.1257694
  43.2313283  48.9123542  33.0737694  42.7015735  49.6881801  33.4446511
  44.4563283  49.1993542  32.3477694  44.3601713  48.8970299  31.3049592
  44.7333283  50.7163542  32.3977694  43.8027302  51.2314536  32.1595279
  45.0354546  50.9649780  33.4151218  45.8303283  51.1593542  31.4147694
  46.7111768  50.5340084  31.5601978  45.4637640  51.0383578  30.3954105
  46.1993283  52.6193542  31.6517694  45.3392343  53.2069461  31.3307196
  46.3323693  52.7291170  32.7280369  47.4453283  53.1123542  30.9347694
  48.3358500  52.6116833  31.3147699  47.3664530  52.9464785  29.8603565
  47.5433283  54.5603542  31.2027694  47.6168581  54.7142512  32.1982637
  48.3617474  54.9331644  30.7430927  46.7184418  55.0245318  30.8503485
  45.7343283  48.5113542  32.8067694  46.5523283  48.0853542  31.9907694
  45.9603283  48.4053542  34.1227694  45.2321973  48.6735724  34.7692859
  47.2243283  47.9503542  34.6627694  48.0292706  48.1037181  33.9439881
  47.5363283  48.7653542  35.9327694  46.6750636  48.8074304  36.5995166
  48.3971453  48.3757394  36.4761795  47.8653283  50.1823542  35.5667694
  49.1263283  50.4693542  35.0297694  49.8282852  49.6540592  34.8546966
  49.4893283  51.7833542  34.7187694  50.4786129  51.9942701  34.3126523
  48.5833283  52.8263542  34.9287694  48.8676921  53.8534926  34.7002440
  47.3083283  52.5493542  35.4337694  46.5910670  53.3578462  35.5751092
  46.9533283  51.2333542  35.7577694  45.9635424  51.0194429  36.1610878
  47.2053283  46.4723542  34.9917694  48.1973283  45.9143542  35.4707694
  46.0993283  45.7643542  34.6907694  45.3167696  46.2228851  34.2464153
  45.9893283  44.3423542  34.9867694  45.0866568  43.9848168  34.4913400
  46.8610062  43.8588787  34.5457154  45.9193283  43.9873542  36.4487694
  45.3893283  44.7343542  37.2717694  46.3923283  42.7743542  36.8017694
  46.5581667  42.0972643  36.0709163  46.3773283  42.3123542  38.1767694
  45.4695220  42.6914099  38.6461346  46.4103283  40.7633542  38.3357694
  45.9693531  40.5260292  39.3039207  45.8223601  40.2971122  37.5451926
  47.8213283  40.1953542  38.2917694  48.4273283  40.0093542  39.3377694
  48.3763283  39.9423542  37.0827694  49.3117154  39.5651972  37.0288851
  47.8523862  40.1319501  36.2403687  47.3393283  43.0593542  39.1057694
  48.4493283  43.4543542  38.7227694  46.9313283  43.2573542  40.3637694
  45.9904685  42.9672330  40.5889624  47.6793283  43.9883542  41.3597694
  48.0054083  44.9517636  40.9678339  46.7653283  44.2353542  42.5767694
  45.8218698  44.5461900  42.1280308  46.6196537  43.2993203  43.1159535
  47.2503283  45.3213542  43.5557694  48.2360999  45.0290186  43.9175637
  47.3353283  46.7153542  42.9037694  46.3497727  47.0085915  42.5421194
  47.6823646  47.4406858  43.6396774  48.0340453  46.6840259  42.0677589
  46.3393283  45.3613542  44.7927694  46.3620601  44.3931058  45.2928472
  46.6906566  46.1322605  45.4786069  45.3181988  45.5871069  44.4854760
  49.0333283  43.3923542  41.7617694  50.0013283  44.1283542  41.9167694
  49.1513283  42.0453542  41.9007694  48.3232071  41.4906166  41.7377334
  50.3893283  41.3523542  42.2957694  50.6985170  41.7031443  43.2803749
  50.1883283  39.8023542  42.3577694  49.3602605  39.6014726  43.0375117
  49.9266799  39.4607714  41.3562898  51.3543283  39.1073542  42.8087694
  51.1771501  38.1640424  42.8280202  51.5253283  41.6473542  41.3307694
  52.5823283  42.1543542  41.7177694  51.2703283  41.4463542  40.0187694
  50.3658829  41.0616016  39.7862975  52.2053283  41.7263542  38.9297694
  53.0968717  41.1310358  39.1268622  51.6483283  41.3333542  37.5627694
  50.7695259  41.9480473  37.3679388  52.6703283  41.5303542  36.4347694
  53.5492767  40.9155791  36.6286790  52.2245378  41.2365447  35.4844821
  52.9640089  42.5790441  36.3889256  51.3103283  39.9563542  37.4827694
  50.9666209  39.7615472  36.6078318  52.5883283  43.1933542  38.8357694
  53.7543283  43.5393542  38.6437694  51.5963283  44.0983542  38.9767694
  50.6478771  43.7524018  39.0060375  51.8063283  45.5323542  39.0137694
  52.3773304  45.8554829  38.1433421  50.4263283  46.2543542  38.9997694
  50.0083024  45.9595046  38.0372636  49.7530996  45.9429165  39.7984368
  50.5913283  47.7503542  39.0377694  51.0573283  48.4493542  37.9187694
  51.2022043  47.9216015  36.9761202  51.3373283  49.8193542  38.0047694
  51.6997367  50.3499100  37.1242738  51.1483283  50.5063542  39.2047694
  51.4243283  51.8883542  39.2687694  51.7338461  52.2480892  38.4342701
  50.6943283  49.8123542  40.3307694  50.5552163  50.3387736  41.2750315
  50.4183283  48.4413542  40.2457694  50.0652943  47.9010072  41.1241157
  52.6343283  45.9963542  40.2087694  53.5873283  46.7503542  40.0447694
  52.3573283  45.5683542  41.4487694  51.5645383  44.9629674  41.6071684
  53.1423283  45.9913542  42.5977694  53.2265052  47.0780941  42.6008883
  52.4843283  45.5473542  43.9087694  52.3430849  44.4737929  43.7838068
  53.1702141  45.7291751  44.7361761  51.1303283  46.2103542  44.2107694
  50.4360911  46.0424718  43.3873916  50.5703283  45.5793542  45.4857694
  51.2638473  45.7472371  46.3097510  49.6078885  46.0324148  45.7235644
  50.4394279  44.5078958  45.3343020  51.1983283  47.7393542  44.3477694
  51.5670246  48.1719578  43.4177067  50.2032713  48.1302286  44.5603251
  51.8729936  48.0020061  45.1625943  54.5603283  45.4633542  42.5637694
  55.5153283  46.1283542  42.9777694  54.7273283  44.2493542  42.0177694
  53.8928948  43.7131777  41.8271525  56.0053283  43.6193542  41.8117694
  56.5873263  43.6410679  42.7331304  55.8003283  42.1383542  41.3887694
  55.0350352  41.7279429  42.0475473  55.4270732  42.1543009  40.3647937
  57.0653283  41.2593542  41.4607694  56.8089351  40.2712813  41.0785712
  57.8236070  41.7104095  40.8207189  57.6113283  41.1293542  42.8837694
  57.6466578  42.1094425  43.3594559  56.9736254  40.4655190  43.4675137
  58.9963283  40.5603542  42.8537694  59.1055608  39.5883349  43.1054560
  60.0963283  41.2753542  42.5657694  60.0503283  42.5083542  42.0837694
  59.1570050  42.9494610  41.9179435  60.9087901  43.0016693  41.8843122
  61.2943283  40.7093542  42.7177694  61.3612780  39.7563002  43.0453454
  62.1291477  41.2363632  42.5046103  56.9233283  44.3703542  40.8357694
  58.1493283  44.2633542  40.9497694  56.3553283  45.1643542  39.8917694
  55.3518772  45.0904604  39.8038778  57.0793283  45.9893542  38.9197694
  58.0421328  45.5191133  38.7198187  56.3143283  46.1643542  37.5597694
  57.0375486  46.5340591  36.8328788  55.9703011  45.1749730  37.2583226
  55.2023283  47.0563542  37.6197694  54.7886107  47.1105866  36.7551907
  57.4943283  47.3463542  39.4947694  58.3733283  48.0183542  38.9447694
  56.9413283  47.7623542  40.6577694  56.3918445  47.0907191  41.1745606
  57.0693283  49.1103542  41.1957694  57.4698685  49.7702913  40.4262568
  55.6983283  49.6653542  41.6597694  55.3192845  48.9997105  42.4352329
  55.8702043  50.6549194  42.0832306  54.6703283  49.7663542  40.5257694
  54.6255678  48.7853625  40.0527443  53.7097632  49.9893780  40.9901798
  54.9863283  50.8343542  39.4627694  56.0352858  50.7141051  39.1919793
  54.3608926  50.6172054  38.5968733  54.7393283  52.2773542  39.9227694
  53.7069393  52.3699110  40.2599738  55.4127030  52.5060533  40.7488217
  54.9803283  53.2183542  38.8197694  54.3561664  53.0068793  38.0543937
  54.8133929  54.1617412  39.1395405  55.9370289  53.1330514  38.5074450
  58.0113283  49.2103542  42.3797694  58.0513283  50.2113542  43.0817694
  58.8393283  48.1803542  42.6287694  58.7510343  47.3426913  42.0714325
  59.8033283  48.1843542  43.7227694  59.2932293  48.3797492  44.6660186
  60.5113283  46.8133542  43.8187694  61.0308291  46.6557784  42.8735774
  61.2404466  46.8867122  44.6256803  59.5633283  45.6253542  44.0887694
  58.5750411  45.9065563  43.7250188  59.9327939  44.7753789  43.5150628
  59.4723283  45.2423542  45.5637694  60.4614227  45.0871526  45.9947031
  58.9412805  46.0013103  46.1382895  58.7053283  43.9543542  45.6437694
  57.7093382  44.0244522  45.4914892  59.2353283  42.7413542  45.8677694
  60.5493283  42.5523542  45.9087694  61.1734717  43.3340602  45.7691959
  60.9183734  41.6277926  46.0793308  58.4143283  41.7193542  46.0827694
  57.4153208  41.8677437  46.0747290  58.7929131  40.7986497  46.2532850
  60.8503283  49.2983542  43.6347694  61.2883283  49.8393542  44.6397694
  61.2283283  49.6793542  42.3947694  60.8038060  49.1860368  41.6224236
  62.1783283  50.7293542  42.0987694  62.9306410  50.8323283  42.8807676
  62.8853283  50.3053542  40.7827694  63.1057497  49.2378752  40.7842513
  62.1997637  50.5331292  39.9665465  64.1853283  51.0713542  40.5557694
  64.9683283  51.2703542  41.4777694  64.4593283  51.4723542  39.2897694
  65.3098515  51.9820741  39.0976868  63.8116617  51.2595140  38.5445662
  61.4543283  52.0653542  41.9157694  62.0603283  53.0823542  41.5997694
  60.1223283  52.0903542  42.1277694  59.6815696  51.2357582  42.4367949
  59.2863283  53.2483542  41.8957694  59.9115894  54.1397578  41.8452979
  58.4993283  53.1223542  40.5737694  57.9476674  52.1831294  40.6140976
  57.7964721  53.9545866  40.5352674  59.3963283  53.1423542  39.3027694
  59.9109709  54.1031658  39.2935542  60.1284536  52.3394316  39.3888334
  58.6093283  52.9753542  38.0077694  57.3683283  52.8253542  38.1207694
  59.2073283  52.9763542  36.9137694  58.3433283  53.3953542  43.0767694
  57.1203283  53.5063542  42.9397694  58.9273283  53.3953542  44.2887694
  59.9307609  53.2834351  44.3151610  58.2173283  53.5043542  45.5417694
  57.2419914  53.9631550  45.3795384  58.0053283  52.0883542  46.1607694
  57.3553820  51.4754053  45.5362995  58.9760014  51.6026207  46.2605532
  57.3853283  52.1073542  47.5447694  58.1993283  52.1453542  48.6897694
  59.2821815  52.1131643  48.5693841  57.6393283  52.2233542  49.9707694
  58.2877529  52.2770903  50.8452743  56.2513283  52.2323542  50.1287694
  55.8083807  52.2772323  51.1236982  55.4303283  52.1833542  49.0007694
  54.3467641  52.1919543  49.1187303  55.9943283  52.1233542  47.7217694
  55.3501683  52.0881846  46.8431791  59.0083283  54.3993542  46.4907694
  60.2293283  54.2863542  46.5997694  58.3183283  55.3023542  47.2177694
  57.3522416  55.4606246  46.9693217  58.8823283  56.0703542  48.3157694
  59.7700854  55.5854188  48.7217550  59.2293283  57.5363542  47.9847694
  59.4022146  58.0899429  48.9076720  60.5063283  57.5703542  47.1177694
  60.3340503  57.0173218  46.1944187  60.7573305  58.6040889  46.8800913
  61.3304666  57.1136880  47.6658148  58.0473283  58.2823542  47.3177694
  57.1902653  58.2818853  47.9912267  58.3400779  59.3102764  47.1038224
  57.7785544  57.7806859  46.3881510  57.8303283  56.0273542  49.4127694
  56.6563283  56.0863542  49.0567694  58.0673283  55.9113542  50.7257694
  59.3663283  55.6223542  51.3187694  59.9226101  56.5556240  51.4062806
  59.9038179  54.9399789  50.6603106  59.0523283  54.9933542  52.6827694
  59.8111568  55.2756042  53.4125730  59.0163903  53.9072251  52.5983096
  57.6763283  55.5593542  53.0577694  57.7842411  56.4897055  53.6153537
  57.0834746  54.8540247  53.6401219  56.9873283  55.8353542  51.7057694
  56.3504599  54.9893918  51.4472261  56.1553283  57.1043542  51.7327694
  54.9313283  57.0263542  51.6737694  56.8123283  58.2773542  51.7677694
  57.8213602  58.2476836  51.8005352  56.1643283  59.5683542  51.7817694
  55.1088659  59.4180104  51.5548441  56.2783283  60.3173542  53.1327694
  57.3285476  60.4634537  53.3853432  55.7888555  61.2869776  53.0414086
  55.6113283  59.5213542  54.2127694  54.2303283  59.6213542  54.4377694
  53.6289471  60.2776335  53.8086927  53.6223283  58.8833542  55.4647694
  52.5468549  58.9606049  55.6244290  54.3883283  58.0393542  56.2697694
  53.7733283  57.3493542  57.3327694  52.8343764  57.5349521  57.4070823
  55.7583283  57.8993542  56.0257694  56.3521483  57.2073718  56.6229617
  56.3673283  58.6503542  55.0117694  57.4395122  58.5614328  54.8367984
  56.8183283  60.3723542  50.6977694  58.0403283  60.3643542  50.5357694
  56.0033283  61.0523542  49.8857694  55.0148309  61.0386183  50.0926110
  56.4403283  61.7213542  48.6907694  57.2683949  61.2005260  48.2099961
  55.2303283  61.7113542  47.7347694  54.6675181  60.8012111  47.9420940
  54.6202400  62.5797496  47.9833287  55.5973283  61.7553542  46.2577694
  56.1739659  62.6622137  46.0755725  56.2112740  60.8834969  46.0318540
  54.3543283  61.7513542  45.3597694  53.8708935  60.7749691  45.3923575
  53.6506941  62.5157768  45.6893999  54.7983283  62.0513542  43.9307694
  55.4076710  62.9544308  43.9661921  55.4116593  61.2125084  43.6017375
  53.6823283  62.2473542  42.9817694  53.1141248  63.0248760  43.2862430
  54.0524565  62.4406147  42.0621197  53.1178194  61.4105027  42.9484764
  56.9843283  63.1253542  48.9707694  56.3503283  64.1223542  48.6577694
  58.1613283  63.2463542  49.6277694  58.5682789  62.4090350  50.0194161
  58.7983283  64.5323542  49.9237694  58.0807197  65.2226642  50.3671756
  59.9883283  64.3763542  50.8847694  60.6976459  63.6892988  50.4233340
  60.6983283  65.7183542  51.1977694  59.9897112  66.4058142  51.6596802
  61.5287075  65.5399809  51.8809633  61.0765114  66.1542369  50.2730611
  59.4733283  63.7393542  52.1957694  59.0374374  62.7639618  51.9796425
  60.3029499  63.6196625  52.8925488  58.7159482  64.3846470  52.6408237
  59.1973283  65.3163542  48.6707694  59.7483283  64.7473542  47.7157694
  58.9283283  66.6373542  48.6397694  58.3435521  66.9624222  49.3963849
  59.3013283  67.5823542  47.6037694  58.7672083  67.2306958  46.7210739
  58.7753283  68.9893542  47.9717694  59.3071383  69.3587703  48.8485875
  58.9385081  69.6690394  47.1354078  57.7090847  68.9333237  48.1910508
  60.7913283  67.6743542  47.2487694  61.6493283  67.6263542  48.1327694
  61.1803283  67.8493542  45.9877694  62.5883283  67.7153542  45.6557694
  62.9102784  66.7092122  45.9243335  63.1499897  68.4441229  46.2401764
  62.6793283  67.9803542  44.1457694  62.9070195  67.0557567  43.6153213
  63.4557693  68.7172243  43.9401892  61.2943283  68.5213542  43.7607694
  61.0372041  68.1743747  42.7599740  61.2052291  69.6069064  43.8024516
  60.3603283  67.8813542  44.7887694  59.4637910  68.4579460  45.0164995
  59.9663283  66.5133542  44.3067694  60.5873283  65.5043542  44.6427694
  58.8943283  66.4793542  43.5137694  58.5639903  67.3401069  43.1013607
  58.2043283  65.2633542  43.1937694  58.6169221  64.3960562  43.7091913
  56.7883283  65.4933542  43.6887694  56.4396529  66.4434318  43.2839519
  56.1628080  64.6856275  43.3087667  56.7033283  65.5283542  45.2197694
  57.1543230  64.6394850  45.6609227  57.2129176  66.4168515  45.5925836
  55.2343283  65.5913542  45.5987694  54.9253283  66.3123542  46.5717694
  54.4153283  64.9283542  44.8957694  58.1353283  64.9153542  41.7187694
  57.5903283  63.8653542  41.3727694  58.7143283  65.7203542  40.8057694
  59.1747861  66.5515762  41.1480383  58.6823283  65.4913542  39.3687694
  57.6569454  65.4650983  38.9999879  59.4263283  66.6623542  38.6797694
  60.4318745  66.7789083  39.0839862  59.4876335  66.4194499  37.6189493
  58.6533283  67.9633542  38.8587694  57.4593283  67.9013542  39.2387694
  59.2823283  69.0293542  38.6587694  59.3063283  64.1673542  38.9527694
  58.7423283  63.3813542  38.1887694  60.4733283  63.8533542  39.5407694
  60.9112210  64.5772543  40.0924197  61.1653283  62.5893542  39.3927694
  61.2870478  62.3552509  38.3351876  62.5663283  62.6623542  40.0477694
  62.3739830  62.9842366  41.0712411  62.9925047  61.6591647  40.0569679
  63.5623283  63.6393542  39.3787694  63.1086764  64.6286074  39.3181163
  64.8583283  63.7193542  40.2057694  65.3128298  62.7304955  40.2664798
  65.5533179  64.4093319  39.7272082  64.6277612  64.0749583  41.2100029
  63.8903283  63.2263542  37.9327694  62.9749992  63.2151836  37.3410371
  64.5927154  63.9394096  37.5011380  64.3358801  62.2315787  37.9306624
  60.3913283  61.4153542  39.9797694  60.4853283  60.2863542  39.5087694
  59.5663283  61.6783542  41.0107694  59.4939695  62.6405897  41.3090416
  58.7953283  60.6833542  41.7167694  59.2510662  59.7047062  41.5662694
  58.7363283  60.9753542  43.2467694  58.1482798  61.8860098  43.3608066
  58.2267780  60.1498195  43.7437111  60.0913283  61.1733542  43.8667694
  61.1593283  60.2983542  43.6067694  61.0028942  59.4481597  42.9428438
  62.4153283  60.5093542  44.1907694  63.2381402  59.8283322  43.9733032
  62.6193283  61.6043542  45.0327694  63.8813283  61.8263542  45.6087694
  64.5302125  61.1652614  45.3567666  61.5593283  62.4663542  45.3197694
  61.7143279  63.3181306  45.9820024  60.2983283  62.2373542  44.7577694
  59.4623270  62.8894251  45.0107622  57.3653283  60.6413542  41.1827694
  56.4813283  60.0903542  41.8397694  57.0493283  61.2273542  39.9997694
  57.7910568  61.6286022  39.4439473  55.6683283  61.4633542  39.5857694
  55.1695955  62.0576491  40.3513923  55.5723283  62.2183542  38.2297694
  54.5141330  62.4142382  38.0567047  56.0994169  63.1632961  38.3615356
  56.1583283  61.4693542  37.0227694  57.2258802  61.3468384  37.2055908
  55.6814919  60.4898171  36.9876095  55.9483283  62.1883542  35.6837694
  54.8964775  62.4599332  35.5945861  56.5584069  63.0915650  35.6731056
  56.3443283  61.2923542  34.5097694  57.4258880  61.1569690  34.5095809
  55.8573710  60.3230823  34.6169318  55.9273283  61.9133542  33.2407694
  56.3787780  62.8113261  33.1410732  56.1921952  61.3160004  32.4706305
  54.9251122  62.0385012  33.2405644  54.7403283  60.2393542  39.5787694
  53.6643283  60.3053542  40.1787694  55.1983283  59.0963542  39.0147694
  56.1544354  59.1333588  38.6913669  54.4543283  57.8633542  38.8247694
  53.3842121  58.0676464  38.8596272  54.7953283  57.2313542  37.4437694
  55.8417802  56.9276914  37.4150185  54.1595507  56.3539478  37.3252583
  54.5213283  58.2113542  36.3147694  53.4753283  58.9043542  36.3557694
  55.3843283  58.3053542  35.4057694  54.7923283  56.8683542  39.9307694
  54.5163283  55.6693542  39.8317694  55.4373283  57.3273542  41.0237694
  55.7168541  58.2976253  41.0469768  55.7963283  56.4813542  42.1457694
  56.1944503  55.5465159  41.7512120  56.8523283  57.1093542  43.0927694
  56.6478822  58.1712616  43.2293477  56.8293959  56.6080748  44.0603918
  58.2693283  57.0043542  42.5857694  58.6523283  57.1543542  41.2397694
  57.8901716  57.3573050  40.4874211  59.9973283  57.0453542  40.8627694
  60.2814411  57.1792553  39.8190017  60.9743283  56.7653542  41.8227694
  62.0199674  56.6695187  41.5302726  60.6063283  56.6083542  43.1607694
  61.3622603  56.3839469  43.9133040  59.2673283  56.7393542  43.5337694
  58.9804048  56.6354897  44.5801857  54.6103283  56.0913542  43.0007694
  53.6823283  56.8783542  43.2367694  54.6423283  54.8603542  43.5347694
  55.2958338  54.1877079  43.1598335  53.7613283  54.4393542  44.5987694
  52.7696385  54.8461223  44.4008043  53.6463283  52.8993542  44.7387694
  54.6823103  52.5790115  44.8493193  53.0953543  52.6664862  45.6499775
  53.0063283  52.1623542  43.5507694  53.6112746  52.3069579  42.6556546
  52.9323283  50.6643542  43.8817694  52.3271172  50.5189077  44.7765675
  52.4799969  50.1291575  43.0468673  53.9372811  50.2803936  44.0571106
  51.6203283  52.7153542  43.1807694  51.7088035  53.7674558  42.9099304
  51.2189836  52.1557220  42.3358816  50.9491634  52.6155053  44.0338033
  54.2413283  55.0043542  45.9157694  55.4353283  55.2683542  46.1127694
  53.3113283  55.2133542  46.8487694  52.3431928  55.1290708  46.5736162
  53.6053283  55.6543542  48.1917694  54.6677222  55.4807127  48.3628459
  53.2923283  57.1333542  48.4967694  53.7594053  57.4140125  49.4407875
  53.8393283  58.0233542  47.3707694  53.3723366  57.7435773  46.4264478
  53.6156974  59.0672120  47.5908813  54.9186837  57.8917603  47.2947728
  51.9033283  57.4123542  48.6167694  51.7795248  58.3453975  48.8057222
  52.9043283  54.7673542  49.1687694  52.1453283  53.8583542  48.7877694
  53.1303283  54.9863542  50.4667694  53.8986201  55.6032357  50.6887698
  52.4203283  54.3593542  51.5547694  52.5043158  53.2739004  51.5015213
  53.0493283  54.8363542  52.8727694  54.1224091  54.7802952  52.6898645
  52.7617912  55.8760242  53.0293221  52.7003283  54.0163542  54.1207694
  51.6377831  54.1526967  54.3220382  53.0023283  52.5163542  53.9547694
  54.0648441  52.3791729  53.7539203  52.7348726  51.9879112  54.8698193
  52.4214540  52.1181425  53.1228362  53.4923283  54.6143542  55.2887694
  53.2093584  55.6583112  55.4236068  53.2724211  54.0582255  56.2000668
  54.5592573  54.5524140  55.0744682  50.9223283  54.6513542  51.4957694
  50.0953283  53.7663542  51.7267694  50.5513283  55.8913542  51.0887694
  51.2810753  56.5782773  50.9634483  49.1743283  56.3033542  50.8787694
  48.6196627  56.1231547  51.7996241  49.0273283  57.7913542  50.4977694
  49.6757536  58.3823100  51.1446195  49.3372073  57.9176243  49.4604021
  47.5603283  58.2693542  50.6607694  46.9071954  57.6279019  50.0691131
  47.3354420  58.1385312  51.7192639  47.3323283  59.7273542  50.2687694
  48.2983283  60.3803542  49.7967694  46.1623283  60.1693542  50.3997694
  48.4733283  55.4823542  49.8087694  47.3723283  54.9773542  50.0267694
  49.1333283  55.2443542  48.6427694  50.0342192  55.6757525  48.4931349
  48.5963283  54.3793542  47.5937694  47.6625091  54.8211561  47.2460741
  49.5363283  54.1803542  46.3727694  50.5147647  53.8806936  46.7482225
  49.1437306  53.4005444  45.7201870  49.7563283  55.3763542  45.5207694
  50.6213283  56.3503542  45.9647694  51.1505986  56.3861484  46.8242410
  50.6253283  57.2583542  45.0187694  51.2526658  58.1344115  45.1833000
  49.8193283  56.9223542  43.9787694  49.2593283  55.7043542  44.3067694
  48.5659689  55.2203722  43.6189356  48.3053283  52.9783542  48.0867694
  47.2553283  52.4173542  47.7897694  49.2203283  52.3863542  48.8777694
  50.1071562  52.8463584  49.0262008  49.0283283  51.0653542  49.4427694
  48.7364750  50.3712447  48.6546495  50.3263283  50.5483542  50.0997694
  50.4812216  51.2611402  50.9097345  50.1660092  49.5542254  50.5170291
  51.5733283  50.5283542  49.1857694  51.8755637  51.5516213  48.9628815
  52.7233283  49.7983542  49.8967694  52.4219860  48.7748086  50.1195832
  53.6009772  49.7856518  49.2504941  52.9639817  50.3160099  50.8253268
  51.3253283  49.9253542  47.7877694  50.5609621  50.5060601  47.2714126
  52.2503467  49.9496825  47.2117049  50.9891860  48.8936259  47.8909396
  47.8693283  50.9743542  50.4347694  47.0253283  50.0913542  50.3387694
  47.7553283  51.9343542  51.3857694  48.5229282  52.5719630  51.5417975
  46.6133283  51.9863542  52.2997694  46.4201704  50.9931907  52.7052513
  46.8103283  52.9753542  53.4477694  46.9058903  53.9826702  53.0424514
  45.5933283  52.9183542  54.4097694  45.4973928  51.9113903  54.8158737
  45.7409271  53.6260304  55.2255572  44.6859167  53.1775600  53.8643195
  48.1203283  52.6993542  54.2277694  47.9642461  51.8156869  54.8465354
  48.9087882  52.4995319  53.5021651  48.5313283  53.8793542  55.1167694
  47.7435081  54.0794879  55.8429826  49.4549769  53.6351672  55.6415030
  48.6880480  54.7633339  54.4986120  45.2953283  52.2433542  51.5587694
  44.2743283  51.6223542  51.8527694  45.2983283  53.1273542  50.5357694
  46.1308522  53.6854146  50.4109822  44.1583283  53.3803542  49.6607694
  43.2897043  53.6462912  50.2631555  44.4563283  54.5493542  48.6727694
  44.8357122  55.4062236  49.2294937  45.2036010  54.2285176  47.9469957
  43.0363283  55.1653542  47.6997694  43.7153607  56.0980618  47.0380521
  43.7043283  52.1543542  48.8697694  42.5073283  51.8743542  48.7877694
  44.6293283  51.3503542  48.2927694  45.5948204  51.6464143  48.2762526
  44.2823283  50.0863542  47.6517694  43.5410878  50.2815475  46.8768105
  45.5053283  49.3823542  47.0027694  46.1929805  49.2231139  47.8333573
  45.1857953  48.4185623  46.6064061  46.1983283  50.1633542  45.9217694
  45.5693283  51.1093542  45.0907694  44.5218105  51.3599320  45.2581510
  46.2813283  51.7283542  44.0527694  45.7906934  52.4653997  43.4170469
  47.6243283  51.4133542  43.8467694  48.3493283  51.9773542  42.7907694
  47.8261111  52.5783758  42.2554038  48.2693283  50.5083542  44.6857694
  49.3301871  50.2964881  44.5523835  47.5523283  49.8713542  45.7007694
  48.0443447  49.1346312  46.3357963  43.6403283  49.0953542  48.6197694
  42.6133283  48.4913542  48.3207694  44.2063283  48.9613542  49.8387694
  45.0685380  49.4567100  50.0157339  43.6533283  48.1303542  50.9057694
  43.5762804  47.1018181  50.5532408  44.5383283  48.1533542  52.1707694
  44.6334637  49.1833587  52.5144831  44.0592984  47.5550304  52.9457784
  45.8333283  47.6233542  51.8937694  46.3661524  47.6468958  52.6919825
  42.2593283  48.5263542  51.3627694  41.3933283  47.6733542  51.5757694
  42.0053283  49.8433542  51.5147694  42.8014405  50.4573862  51.4184920
  40.7153283  50.4323542  51.8377694  40.3366752  50.0470548  52.7844824
  40.9053283  51.9753542  51.9677694  41.5467281  52.1626495  52.8289465
  41.3552793  52.4152637  51.0777561  39.6173283  52.7253542  52.2167694
  38.9593283  52.6193542  53.4487694  39.4032532  52.0120407  54.2375666
  37.7463283  53.2813542  53.6737694  37.2445951  53.1798010  54.6360851
  37.1793283  54.0693542  52.6707694  36.2477869  54.6057201  52.8514406
  37.8133283  54.1683542  51.4287694  37.3667235  54.7692349  50.6365657
  39.0213283  53.4963542  51.2017694  39.5102722  53.5673843  50.2301787
  39.6523283  50.1153542  50.7857694  38.5413283  49.6953542  51.1017694
  39.9953283  50.2783542  49.4937694  40.9061792  50.6652627  49.2918986
  39.1143283  49.9793542  48.3827694  38.1693115  50.5124859  48.4867553
  39.7893283  50.4293542  47.0857694  40.8024318  50.0272917  47.0939214
  39.2299793  49.9868110  46.2615217  39.8453283  51.9553542  46.9057694
  38.8314725  52.3553671  46.8920978  40.4226420  52.4565085  47.6827219
  40.4973283  52.2353542  45.5577694  39.8873283  52.0023542  44.5167694
  41.7673283  52.6973542  45.5687694  42.2368142  52.8958533  44.6968276
  42.2412168  52.8420375  46.4488818  38.7203283  48.5153542  48.2567694
  37.5543283  48.1933542  48.0327694  39.6743283  47.5763542  48.4377694
  40.6451665  47.8548235  48.4429999  39.3633283  46.1533542  48.4907694
  38.7504093  45.8866310  47.6297884  40.6093283  45.2783542  48.4907694
  41.2417936  45.5458653  49.3372472  40.1963283  43.7943542  48.6057694
  39.5641781  43.5259603  47.7593347  41.0880203  43.1674682  48.6058163
  39.6449375  43.6409649  49.5334232  41.4023283  45.5083542  47.1837694
  41.6950649  46.5560805  47.1153819  42.2942084  44.8817368  47.1842585
  40.7776199  45.2496431  46.3288374  38.4463283  45.8133542  49.6667694
  37.4783283  45.0733542  49.5117694  38.6793283  46.3943542  50.8697694
  39.5420157  46.8991579  51.0148318  37.7853283  46.2173542  52.0027694
  37.7367012  45.1409407  52.1672950  38.3663283  46.8843542  53.2687694
  38.4127570  47.9635320  53.1227572  37.7277043  46.6610043  54.1233889
  39.3691596  46.4999459  53.4549384  36.3493283  46.7023542  51.7377694
  35.3943283  45.9933542  52.0407694  36.1743283  47.8843542  51.0947694
  36.9991079  48.4486542  50.9484702  34.8883283  48.4033542  50.6317694
  34.2001386  48.4917732  51.4724098  35.0713283  49.8073542  49.9897694
  35.9034743  49.7371715  49.2892649  34.1558784  50.0356912  49.4439547
  35.3523283  50.9243542  51.0087694  35.5988110  50.4651734  51.9661095
  36.2029531  51.5078600  50.6565472  34.1343283  51.8473542  51.1817694
  33.2367003  51.2302153  51.1430076  34.2074099  52.3203564  52.1610689
  34.0583283  52.9273542  50.0977694  34.8309523  53.6728911  50.2857254
  34.2285943  52.4656534  49.1251744  32.7303283  53.5803542  50.1077694
  32.5725396  54.0086086  51.0087692  32.6978756  54.2883206  49.3881650
  32.0142873  52.8897677  49.9331992  34.1913283  47.5153542  49.6117694
  32.9853283  47.2813542  49.6777694  34.9413283  46.9753542  48.6327694
  35.9187801  47.2167120  48.5525588  34.3793283  46.0373542  47.6677694
  33.5124097  46.5139905  47.2102006  35.1368329  45.8539087  46.9057760
  33.9533283  44.7113542  48.2697694  32.9423283  44.1323542  47.8817694
  34.7153283  44.1993542  49.2597694  35.6245079  44.6158364  49.4013125
  34.3693283  43.0173542  50.0357694  33.9819702  42.2507553  49.3646666
  35.5903283  42.4443542  50.7867694  36.0582496  43.2803159  51.3066895
  35.2031133  41.7338287  51.5170557  36.6363283  41.7443542  49.8927694
  37.0687673  42.5181471  49.2584651  37.4029313  41.3531489  50.5616344
  36.0053283  40.3843542  48.8387694  35.0033283  39.4253542  50.0147694
  34.2104839  40.0563632  50.4164214  34.5621605  38.5696369  49.5036729
  35.6358688  39.0743996  50.8301373  33.2003283  43.2093542  50.9977694
  32.3653283  42.3193542  51.1537694  33.0833283  44.3883542  51.6477694
  33.8674709  45.0234076  51.6038727  31.9263283  44.7733542  52.4457694
  31.7570517  44.0445282  53.2383962  32.1743283  46.1603542  53.0927694
  33.0312817  46.0364364  53.7548679  32.4406655  46.8317061  52.2764048
  30.9873283  46.7623542  53.8907694  30.0720948  46.6921741  53.3029572
  30.8872823  46.1568964  54.7916084  31.2313283  48.2213542  54.2817694
  31.6413283  49.0213542  53.3977694  30.9633283  48.5493542  55.4657694
  30.6483283  44.8003542  51.6087694  29.6083283  44.2663542  52.0017694
  30.7333283  45.3543542  50.3747694  31.5444201  45.9214690  50.1732495
  29.6883283  45.2663542  49.3707694  28.7481028  45.6347148  49.7811176
  30.0583283  46.1243542  48.1297694  30.2498118  47.1391761  48.4784379
  30.9131615  45.7716111  47.5527663  28.8953283  46.2093542  47.1707694
  27.7733283  46.9883542  47.4867694  27.7775225  47.5800113  48.4022060
  26.6563283  47.0123542  46.6427694  25.7865122  47.6144968  46.9053429
  26.6573283  46.2633542  45.4627694  25.7997498  46.2981766  44.7908717
  27.7603283  45.4693542  45.1457694  27.7577319  44.8751705  44.2319646
  28.8693283  45.4353542  45.9997694  29.7240280  44.8034948  45.7582284
  29.3583283  43.8283542  48.9577694  28.1963283  43.4503542  48.9127694
  30.3533283  42.9543542  48.6947694  31.3084432  43.2792852  48.6470750
  30.0843283  41.5493542  48.3997694  29.4164250  41.4723280  47.5418234
  31.3963283  40.8093542  48.0707694  32.1835742  41.3095981  48.6347723
  31.3015636  39.7795667  48.4152364  31.7523283  40.8183542  46.5777694
  31.6704014  41.8355214  46.1946772  33.1863283  40.3113542  46.3787694
  33.2689222  39.2940033  46.7612276  33.4314717  40.3207255  45.3167347
  33.8790176  40.9585557  46.9167399  30.7893283  39.9373542  45.7727694
  29.7716122  40.3098165  45.8894959  31.0667018  39.9637251  44.7189811
  30.8441941  38.9114133  46.1368218  29.3543283  40.7793542  49.4987694
  28.4163283  40.0253542  49.2317694  29.7473283  41.0043542  50.7657694
  30.6008390  41.5320707  50.8803732  29.0903283  40.4953542  51.9517694
  29.0574709  39.4090062  51.8688975  29.9263283  40.8703542  53.1947694
  29.9608200  41.9550627  53.2963459  29.4697623  40.4369578  54.0846094
  30.9393449  40.4841189  53.0819907  27.6443283  40.9893542  52.1127694
  26.7553283  40.2293542  52.4947694  27.3543283  42.2743542  51.7727694
  28.1396658  42.8958752  51.6421707  26.0033283  42.8533542  51.7937694
  25.5339527  42.5642736  52.7340981  25.9583283  44.4173542  51.6707694
  25.0670257  44.7469695  52.2046539  26.8457913  44.7960395  52.1778264
  25.9243283  44.9183542  50.3327694  25.8981353  45.8778249  50.3509250
  25.0543283  42.1653542  50.8147694  23.8503283  42.0293542  51.0617694
  25.5953283  41.6293542  49.7007694  26.5895837  41.7469755  49.5676500
  24.8423283  40.9303542  48.6767694  23.8279402  41.3267876  48.6325363
  25.5053283  41.1103542  47.2877694  26.4812903  40.6273550  47.3358245
  24.8775535  40.5887512  46.5653227  25.6803283  42.5823542  46.8497694
  26.3995785  43.0129796  47.5464341  26.1198077  42.5423802  45.8530939
  24.4183283  43.4513542  46.8167694  23.9261153  43.4728533  47.7890673
  24.6463629  44.4699891  46.5029502  23.4813283  42.8383542  45.8167694
  23.8452568  42.7828431  44.8762515  22.2403283  42.3893542  46.0497694
  21.7013283  42.4343542  47.2637694  22.2318776  42.8140824  48.0347583
  20.7636469  42.0886151  47.4097753  21.5423283  41.8713542  45.0467694
  21.9506526  41.8211141  44.1243556  20.6060512  41.5297915  45.2105336
  24.7223283  39.4433542  48.9697694  24.0843283  38.7033542  48.2197694
  25.2873283  39.0123542  50.1177694  25.8983574  39.6890207  50.5523557
  25.2623283  37.6633542  50.6537694  25.7839059  37.6759478  51.6107947
  23.8413283  37.0843542  50.8717694  23.4477843  36.7700954  49.9050927
  23.9215810  36.2189125  51.5295461  22.8933283  38.1173542  51.4987694
  23.4694253  38.6948633  52.2217468  22.5501427  38.7748674  50.7000191
  21.6813283  37.4863542  52.1977694  21.1671058  36.8741023  51.4569443
  22.0665586  36.8473118  52.9923271  20.6993283  38.5023542  52.7907694
  20.3572041  39.1814687  52.0098372  19.8433407  37.9797901  53.2177486
  21.3833283  39.2743542  53.8497694  22.1762859  39.7589938  53.4542413
  20.7409480  39.9461833  54.2448555  21.7000513  38.6453052  54.5737052
  26.1583283  36.7233542  49.8897694  25.8843283  35.5273542  49.7737694
  27.2823283  37.2463542  49.3827694  27.5014481  38.2065124  49.6067827
  28.2003283  36.5133542  48.5557694  27.8153847  35.5087355  48.3806726
  28.3873283  37.2163542  47.1897694  28.6242512  38.2706647  47.3325845
  29.1853426  36.7389585  46.6211160  26.9113283  37.1703542  46.1247694
  27.4511840  37.8394626  45.1100044  29.5443283  36.4443542  49.2347694
  29.9073283  37.3093542  50.0447694  30.3283283  35.4033542  48.9317694
  29.9422355  34.7016485  48.3164315  31.6523283  35.1863542  49.4747694
  32.0575671  36.1063488  49.8960657  31.7543283  34.0603542  50.5127694
  32.7761138  33.9800148  50.8837148  30.8073283  34.4063542  51.6837694
  29.7852181  34.4864089  51.3136578  30.8595961  33.6213048  52.4381342
  31.1082121  35.3557623  52.1267054  31.4973283  32.6373542  49.9547694
  30.4755349  32.6070124  49.5764596  32.1936090  32.4706623  49.1328773
  31.6833283  31.5423542  51.0117694  30.9870146  31.7081238  51.8338202
  31.4902995  30.5676158  50.5637470  32.7050888  31.5717754  51.3902397
  32.5283283  34.9203542  48.2817694  32.0593283  34.3393542  47.2907694
  33.7873283  35.3773542  48.3037694  34.1139216  35.8083081  49.1568314
  34.6803283  35.3433542  47.1677694  34.1265012  35.5518519  46.2523988
  35.7933283  36.4153542  47.3297694  35.2748001  37.3367707  47.5947587
  36.5236450  36.1749482  48.1023899  36.5673283  36.7033542  46.0847694
  37.4083283  35.7323542  45.5817694  37.8613283  36.2243542  44.4517694
  38.5464845  35.5976684  43.8808710  37.3713283  37.4653542  44.2017694
  37.5581267  38.0720584  43.4162019  36.5333283  37.7703542  45.2567694
  36.0119847  38.7273180  45.2796221  35.2953283  33.9653542  46.9857694
  35.1473283  33.3503542  45.9337694  35.9383283  33.4343542  48.0467694
  36.0564893  34.0616925  48.8294469  36.6283283  32.1503542  48.0797694
  36.8707621  31.9446642  49.1223703  35.8363283  30.9353542  47.5027694
  35.7714326  31.1001852  46.4272609  36.4485403  30.0550473  47.6986171
  34.4193283  30.7143542  48.0757694  34.5070065  30.5944703  49.1556033
  33.8245990  31.6010443  47.8562707  33.7333283  29.4773542  47.4777694
  33.5250181  29.6381239  46.4200081  34.3719135  28.6015204  47.5927634
  32.4283283  29.2223542  48.1947694  32.4566526  28.5358602  48.9350553
  31.2473283  29.7823542  47.8847694  31.1513283  30.7353542  46.9687694
  31.9800349  31.0542896  46.4874944  30.2499059  31.1382860  46.7562062
  30.1483283  29.4213542  48.5587694  30.2142144  28.7320678  49.2940539
  29.2583686  29.8399466  48.3288762  38.0623283  32.1103542  47.5147694
  38.7873283  31.1633542  47.8327694  38.5393283  33.1053542  46.7287694
  37.9019812  33.8442293  46.4680940  39.8883283  33.1283542  46.1747694
  40.5590056  32.5665968  46.8249385  39.9203283  32.4893542  44.7557694
  39.3244129  31.5791385  44.8227874  39.4425108  33.1859348  44.0668819
  41.3163283  32.1463542  44.2447694  42.3423283  32.2923542  44.9607694
  41.4043283  31.7283542  43.0607694  40.3833283  34.5773542  46.1737694
  40.9043283  35.1153542  45.1937694  40.1883283  35.2983542  47.2977694
  39.6147101  34.9053327  48.0302963  40.6753283  36.6573542  47.4587694
  40.4665289  37.2338303  46.5575606  39.9783283  37.3433542  48.6567694
  38.9174786  37.1620649  48.4840518  40.2903486  36.8315726  49.5671666
  40.2223283  38.8583542  48.8097694  41.2958286  39.0242914  48.9001180
  39.6803283  39.6513542  47.6067694  38.6067284  39.4862728  47.5160491
  39.8727796  40.7139537  47.7549097  40.1771636  39.3161236  46.6963434
  39.5683283  39.3363542  50.1137694  40.0083016  38.8048665  50.9575963
  39.7343558  40.4070279  50.2329075  38.4973018  39.1370489  50.0780123
  42.2023283  36.7203542  47.5887694  42.7913283  36.1403542  48.4987694
  42.8803283  37.4113542  46.6537694  42.3574415  37.9734753  45.9974855
  44.3193283  37.4263542  46.5717694  44.8371522  37.5674710  47.5204757
  44.8083283  36.1113542  45.9347694  44.3054109  35.9607347  44.9795271
  45.8850941  36.1634794  45.7736524  44.5808985  35.2782715  46.5998620
  44.6823283  38.5853542  45.6627694  43.8263283  39.0393542  44.9027694
  45.9383283  39.0863542  45.6557694  46.6046911  38.7213793  46.3212416
  46.3453283  40.2083542  44.8117694  45.6388264  41.0075959  45.0357491
  47.7583283  40.6763542  45.2047694  48.4782775  39.8900126  44.9779650
  48.0134168  41.5748830  44.6429188  47.7851535  40.8959930  46.2720737
  46.2653283  39.9393542  43.3127694  46.0333283  40.8363542  42.5007694
  46.3873283  38.6643542  42.9027694  46.6696302  37.9845288  43.5943202
  46.2053283  38.2183542  41.5337694  46.7624848  38.8647333  40.8556323
  46.7213283  36.7643542  41.3687694  46.6716373  36.5260152  40.3063078
  47.7615201  36.7552778  41.6943744  45.9233283  35.7143542  42.1687694
  45.9692587  36.0094793  43.2170501  44.8911909  35.7660550  41.8221842
  46.4423283  34.2753542  42.0187694  46.3318741  33.9115268  40.9972370
  47.4852223  34.1892201  42.3238145  45.6033283  33.4223542  42.9267694
  44.7958563  32.9489210  42.5473629  45.8893283  33.2573542  44.2227694
  47.0393283  33.6953542  44.7207694  47.7043902  34.1570731  44.1169413
  47.2439031  33.5648515  45.7011866  45.0173283  32.6573542  45.0327694
  44.1367754  32.3260767  44.6653705  45.2410975  32.5367186  46.0102525
  44.7563283  38.2943542  41.0347694  44.5033283  38.1913542  39.8347694
  43.7773283  38.4683542  41.9507694  44.0783305  38.4567416  42.9148037
  42.3553283  38.6013542  41.6737694  42.1770458  38.4675643  40.6068042
  41.5313283  37.5293542  42.4557694  42.0004403  37.3862500  43.4291935
  40.5071450  37.8758183  42.5940128  41.4983283  36.1833542  41.7257694
  41.6733283  36.0903542  40.5047694  41.2433283  35.0873542  42.4727694
  41.2115945  34.1777477  42.0349238  41.0855309  35.1823428  43.4658343
  41.9123283  40.0243542  42.0287694  40.7213283  40.2973542  42.2107694
  42.8513283  40.9923542  42.0987694  43.8250261  40.7257751  42.0679868
  42.5273283  42.4023542  42.2087694  41.4479097  42.5533120  42.2216685
  43.1563283  43.1133542  43.4107694  44.2411077  43.0364077  43.3370585
  42.7463283  44.6053542  43.4427694  41.6616384  44.6831111  43.5169462
  43.2046239  45.0902257  44.3047239  43.0835477  45.0950347  42.5292076
  42.8293283  42.4073542  44.7467694  43.2338129  41.3972680  44.6818158
  43.3476289  42.9558465  45.5332936  41.3353283  42.3383542  45.0727694
  40.8163946  41.7895666  44.2868688  41.1940068  41.8281482  46.0255639
  40.9302100  43.3481457  45.1383442  43.0473283  43.0383542  40.9487694
  44.2013283  42.8003542  40.5567694  42.2333283  43.8403542  40.2627694
  41.3068608  43.9775813  40.6408249  42.5953283  44.5553542  39.0637694
  43.4733185  44.0862942  38.6196803  41.4533283  44.5493542  38.0237694
  40.6056165  44.9481936  38.5809149  41.6787845  45.2082996  37.1852824
  41.1063283  43.1533542  37.4967694  41.1297843  42.4453727  38.3252094
  39.7063283  43.1513542  36.8607694  39.6822270  43.8588080  36.0318984
  39.4758139  42.1520040  36.4916311  38.9671360  43.4418320  37.6073066
  42.1823283  42.6413542  36.5257694  43.1417943  42.5894223  37.0403833
  41.9077835  41.6486652  36.1689853  42.2615005  43.3223921  35.6784100
  42.8493283  45.9973542  39.4107694  42.1783283  46.5523542  40.2847694
  43.7863283  46.6563542  38.7187694  44.3755847  46.1373250  38.0835647
  44.0403283  48.0683542  38.8897694  43.4175758  48.4665850  39.6908254
  45.5253283  48.2953542  39.2587694  45.6210552  47.7891437  40.2193351
  46.1479738  47.7914958  38.5194863  45.9833283  49.7623542  39.4027694
  45.7963199  50.2508362  38.4464671  45.2713283  50.5403542  40.5237694
  45.4582704  50.0527011  41.4805066  45.6517968  51.5612739  40.5564416
  44.1989609  50.5588503  40.3293820  47.4993283  49.8003542  39.6227694
  48.0022364  49.3433625  38.7705127  47.8263427  50.8351149  39.7249118
  47.7493088  49.2496533  40.5295976  43.6463283  48.7983542  37.6117694
  44.0683283  48.4493542  36.5037694  42.7683283  49.8143542  37.7307694
  42.3788335  49.9842357  38.6470300  42.3013283  50.6303542  36.6207694
  42.6303529  50.1798616  35.6843408  40.7453283  50.7483542  36.5977694
  40.3382462  49.7507729  36.7627389  40.4535825  51.4000300  37.4213610
  40.2333283  51.2753542  35.3677694  39.2756811  51.3237082  35.4143913
  42.9513283  51.9993542  36.7097694  43.8993283  52.2143542  37.4647694
  42.4643283  52.9683542  35.9207694  41.7815997  52.6938539  35.2289381
  42.8763283  54.3553542  35.9657694  43.9581407  54.4068784  35.8427797
  42.2123283  55.1993542  34.8547694  41.1511786  55.2582179  35.0968345
  42.6529850  56.1947393  34.9107174  42.3843283  54.6383542  33.4197694
  42.1516056  53.5737336  33.4426599  41.6450990  55.1583095  32.8104373
  43.7783283  54.8433542  32.8167694  44.8013283  54.7853542  33.5507694
  43.8553283  55.0373542  31.5767694  42.5713283  55.0213542  37.2957694
  41.6773283  54.6093542  38.0337694  43.3383283  56.0773542  37.6427694
  44.1922137  56.2213624  37.1229225  43.0873283  56.9193542  38.8077694
  43.8938395  57.6464880  38.9021905  41.7403283  57.6843542  38.6917694
  40.9460715  56.9522816  38.5457381  41.5728816  58.2198100  39.6263007
  41.7383283  58.6793542  37.5257694  42.5696870  59.3689423  37.6720973
  41.8913520  58.1168208  36.6047688  40.4253283  59.4733542  37.4287694
  39.6151700  58.7588957  37.2828528  40.2824361  59.9957119  38.3747206
  40.4243283  60.4873542  36.2807694  41.2203746  61.2131855  36.4468406
  40.6021971  59.9621390  35.3423607  39.1213283  61.1903542  36.2137694
  38.9565177  61.6774484  37.0830659  39.1359409  61.8546631  35.4531249
  38.3836042  60.5180066  36.0594615  43.1853283  56.2083542  40.1487694
  42.5673283  56.6113542  41.1287694  44.0143283  55.1473542  40.2187694
  44.3773792  54.7997335  39.3427253  44.2423283  54.3633542  41.4167694
  44.8801241  53.5139715  41.1720967  44.9313283  55.1963542  42.5277694
  44.4250497  56.1366157  42.7461486  45.0228911  54.6123664  43.4435612
  46.3183283  55.5033542  42.0097694  47.1003283  54.5683542  41.7507694
  46.6963283  56.7713542  41.7947694  47.6248790  56.9664986  41.4486307
  46.0508582  57.5258060  41.9798951  43.0193283  53.6033542  41.9067694
  42.9163283  53.2763542  43.0847694  42.0913283  53.2433542  40.9907694
  42.2093232  53.5171832  40.0257854  40.8973283  52.5013542  41.3547694
  40.6561624  52.7087027  42.3973359  39.6793283  52.8343542  40.4967694
  39.8801599  52.5562312  39.4621615  38.4473283  52.0543542  41.0097694
  38.2455825  52.3323135  42.0442442  37.5812551  52.2960194  40.3936399
  38.6451645  50.9839258  40.9536834  39.4033283  54.3503542  40.5507694
  40.2702675  54.8917360  40.1720554  38.5332679  54.5838696  39.9371205
  39.2110604  54.6486986  41.5813637  41.1623283  51.0113542  41.2517694
  41.4793283  50.4893542  40.1787694  41.0073283  50.2703542  42.3647694
  40.8741668  50.7297740  43.2543203  41.1593283  48.8303542  42.3517694
  41.5409181  48.5066699  41.3834116  42.0403283  48.2353542  43.4467694
  41.9571833  47.1485568  43.4391752  43.5003283  48.6393542  43.1807694
  43.5843568  49.7260822  43.1886719  44.1409618  48.2202669  43.9566915
  43.8118320  48.2584337  42.2081612  41.5623283  48.6713542  44.8367694
  40.5377013  48.3333898  44.9917582  42.2080069  48.2329113  45.5976680
  41.6009632  49.7581724  44.9104870  39.8153283  48.1633542  42.3517694
  38.8353283  48.6573542  42.9347694  39.7283283  47.0303542  41.6527694
  40.5742860  46.6966084  41.2133736  38.5163283  46.2743542  41.4637694
  37.7466258  46.6390388  42.1439623  38.0023283  46.4173542  40.0147694
  38.8523396  46.3082695  39.3412113  37.2866131  45.6166642  39.8283632
  37.3283283  47.7713542  39.7707694  36.2497756  47.6144844  39.7854929
  37.6094906  48.4358991  40.5877332  37.7353283  48.4063542  38.4307694
  38.8250737  48.4060422  38.4072349  37.3553620  47.7484195  37.6492024
  37.2203283  49.8293542  38.1947694  37.6644379  50.5208730  38.9107785
  37.4525489  50.1574056  37.1815789  35.7633283  49.8033542  38.3787694
  35.5479436  49.4998126  39.3176899  35.3886444  50.7294146  38.2300281
  35.3515697  49.1629573  37.7151085  38.7303283  44.8153542  41.7627694
  39.6173283  44.1633542  41.2027694  37.9223283  44.2503542  42.6637694
  37.3515621  44.8681566  43.2229164  37.8673283  42.8283542  42.9377694
  38.8574641  42.4004841  43.0947965  37.0033283  42.5703542  44.1637694
  36.0131993  42.9886992  43.9828484  36.8773283  41.0593542  44.4597694
  37.8670814  40.6403687  44.6412651  36.2537270  40.9120872  45.3415486
  36.4221508  40.5579835  43.6056382  37.5763283  43.3283542  45.3817694
  38.4931226  42.8311714  45.6986264  37.8041252  44.3499570  45.0775723
  36.5863283  43.3523542  46.5387694  36.3583891  42.3310448  46.8438443
  37.0216283  43.8933898  47.3789441  35.6693903  43.8498287  46.2227891
  37.3553283  42.0483542  41.7317694  36.3973283  42.4543542  41.0697694
  37.9753283  40.8963542  41.4187694  38.7913064  40.6161771  41.9439169
  37.5673283  40.0803542  40.3037694  36.4978331  40.2136740  40.1409662
  38.3223283  40.4543542  38.9897694  37.8314848  39.9667212  38.1475189
  38.2855424  41.5353506  38.8548859  40.0873283  39.9903542  38.8857694
  40.2886886  40.4819144  37.6664578  37.7663283  38.6383542  40.6537694
  38.3043283  38.3243542  41.7197694  37.3183283  37.7193542  39.7957694
  36.6258910  37.9604874  39.1011583  37.7123283  36.3513542  39.9127694
  38.6135225  36.2780464  40.5215175  36.5913283  35.5173542  40.5847694
  36.4850107  35.9446919  41.5818543  35.6211989  35.5099271  40.0878853
  37.1133283  34.0953542  40.6967694  38.3483283  33.9553542  40.9137694
  36.3293283  33.1543542  40.4357694  38.1013283  35.9113542  38.5027694
  37.2623283  35.8473542  37.5857694  39.3903283  35.6173542  38.2357694
  40.1143327  35.8878135  38.8859761  39.7893283  35.0383542  36.9587694
  39.2879132  35.5943442  36.1665844  41.3163283  35.0713542  36.6967694
  41.9019952  34.8076232  37.5774166  41.5581298  34.3884224  35.8823762
  41.7793283  36.4383542  36.2647694  42.1013283  37.4333542  37.1997694
  41.9543367  37.2333012  38.2611233  42.6063283  38.6723542  36.7837694
  42.8791128  39.4256863  37.5228094  42.7603283  38.9423542  35.4207694
  43.1437108  39.9088553  35.0936710  42.4213283  37.9693542  34.4767694
  42.5317320  38.1778828  33.4126139  41.9393283  36.7253542  34.8997694
  41.6819063  35.9622003  34.1653105  39.2473283  33.6223542  36.7807694
  38.8803283  33.2233542  35.6737694  39.1413283  32.8383542  37.8747694
  39.4337907  33.2419249  38.7532316  38.6393283  31.4643542  37.8757694
  38.8389716  31.0619575  38.8689052  37.5624184  31.5275177  37.7196452
  39.2373283  30.5293542  36.8327694  40.4213283  30.2233542  36.8347694
  38.3993283  30.0713542  35.8717694  37.4350742  30.3658444  35.9316759
  38.7853283  29.1843542  34.7787694  39.3001907  28.3105050  35.1780231
  37.5393283  28.7093542  33.9977694  37.1054237  29.6239758  33.5936736
  37.8683504  28.0708399  33.1779255  36.4823283  27.9663542  34.8337694
  36.1224406  28.6103785  35.6361498  35.3103283  27.5893542  33.9157694
  35.6693768  26.9449118  33.1133499  34.5512678  27.0613912  34.4929894
  34.8773131  28.4937984  33.4884770  37.0413283  26.7113542  35.5277694
  37.8529354  26.9967251  36.1970652  36.2497018  26.2300731  36.1020491
  37.4177725  26.0172606  34.7763555  39.7273283  29.8003542  33.7557694
  40.3213283  29.0903542  32.9417694  39.9053283  31.1363542  33.7787694
  39.3680188  31.6696608  34.4473365  40.7833283  31.8493542  32.8817694
  40.8697190  31.3056811  31.9409956  40.2133283  33.2473542  32.5907694
  40.1294723  33.8072166  33.5222319  40.8781576  33.7764686  31.9080248
  39.2276894  33.1508735  32.1354601  42.1773283  31.9653542  33.4727694
  43.0163283  32.7193542  32.9827694  42.4593283  31.1863542  34.5317694
  41.6905542  30.7080656  34.9793470  43.7803283  31.0093542  35.0727694
  44.5019178  31.6011581  34.5095857  43.8013283  31.4763542  36.5467694
  43.4713869  32.5151825  36.5553491  43.0793942  30.8619320  37.0847253
  45.1763283  31.3693542  37.2307694  45.5057122  30.3356017  37.1260654
  45.8562996  32.0238061  36.6853945  45.1743283  31.7563542  38.7117694
  44.3446662  31.2898944  39.2429708  46.1129861  31.4843983  39.1945333
  45.0123283  33.2463542  38.7807694  45.8005380  33.7920415  38.4628855
  43.9113283  33.8923542  39.1937694  42.8073283  33.2613542  39.5557694
  42.7733432  32.2523484  39.5265742  42.0030486  33.7912427  39.8598284
  43.9133283  35.2233542  39.2837694  44.7452880  35.7416614  39.0402519
  43.0828751  35.7066475  39.5950149  44.1663283  29.5393542  34.9777694
  43.3903283  28.6513542  35.3427694  45.3803283  29.2263542  34.4717694
  45.8957041  29.9648198  34.0144340  45.9303283  27.8833542  34.4427694
  45.1491458  27.1647843  34.1947567  47.0553283  27.7903542  33.3627694
  46.6673940  28.2945432  32.4776708  47.9295667  28.3266087  33.7318743
  47.4503283  26.3623542  33.0017694  47.1573283  25.4413542  33.8097694
  48.0763283  26.1783542  31.9217694  46.3933283  27.4843542  35.8427694
  47.5583283  27.6333542  36.2177694  45.4803283  26.9493542  36.6787694
  44.5187729  26.9115053  36.3720482  45.7793283  26.5893542  38.0547694
  46.4439204  27.3090284  38.5327711  44.5123283  26.4273542  38.8977694
  44.7679197  26.0738362  39.8966680  43.8223283  27.8113542  39.0007694
  43.5660029  28.1653390  38.0022241  42.9149372  27.7219817  39.5980588
  44.5000945  28.5214603  39.4745642  43.5543283  25.3333542  38.3657694
  43.1110484  25.6983326  37.4392736  44.1464371  24.4420501  38.1582032
  42.4403283  24.9863542  39.3637694  41.8474657  25.8771227  39.5714835
  41.7986904  24.2144066  38.9389201  42.8828550  24.6208422  40.2904144
  46.7143283  25.3813542  38.1747694  47.2713283  25.1123542  39.2447694
  46.9383283  24.6103542  37.0847694  46.2800158  24.6656067  36.3207857
  47.9703283  23.5903542  37.0317694  47.9848315  23.0549277  37.9810888
  47.7333283  22.5653542  35.8867694  46.6954497  22.2375388  35.9454574
  47.9044882  23.0585220  34.9299048  48.6503283  21.3633542  36.0067694
  48.4033283  20.3583542  36.9567694  47.5246982  20.4379503  37.5969046
  49.2693283  19.2633542  37.0877694  49.0801898  18.5158366  37.8581887
  50.3793283  19.1403542  36.2557694  51.2043283  18.0063542  36.3957694
  50.9036237  17.4061359  37.0820014  50.6333283  20.1233542  35.2937694
  51.4936673  20.0288939  34.6312027  49.7793283  21.2323542  35.1817694
  49.9880017  22.0087808  34.4457550  49.3683283  24.1893542  37.0037694
  50.2413283  23.7393542  37.7427694  49.5943283  25.2413542  36.1917694
  48.8295832  25.6513225  35.6748649  50.9193283  25.7993542  36.0157694
  51.6867873  25.0562144  36.2322161  51.0633283  26.2423542  34.5477694
  50.3025453  26.9960372  34.3446183  52.0526132  26.6822340  34.4215899
  50.8963283  25.0713542  33.5707694  51.5918803  24.2855440  33.8654058
  49.8742602  24.7029253  33.6587407  51.1693283  25.4763542  32.1197694
  50.5792992  26.3647522  31.8945726  52.2294050  25.7105861  32.0224438
  50.8033283  24.3623542  31.1437694  51.4225959  23.4859999  31.3351104
  49.7528118  24.0974070  31.2634236  51.0363283  24.8373542  29.7677694
  52.0097927  25.0825056  29.6565597  50.7965389  24.1058223  29.1139635
  50.4622765  25.6491455  29.5901225  51.2113283  26.9883542  36.9137694
  52.3573283  27.4243542  37.0237694  50.1943283  27.5183542  37.6097694
  49.2623664  27.1933657  37.3954591  50.3433283  28.5773542  38.5757694
  51.0985020  29.2978320  38.2615661  48.9733283  29.3063542  38.6787694
  48.5649702  29.4607988  37.6800253  48.3182814  28.6395307  39.2394477
  49.0713283  30.6383542  39.3957694  48.3953283  31.6053542  38.9537694
  49.7923283  30.6863542  40.4197694  50.8473283  27.9773542  39.9207694
  50.2053283  27.0573542  40.4467694  51.9743283  28.3963542  40.5147694
  52.8793283  29.3863542  39.9437694  52.3050156  30.2845436  39.7167874
  53.2951105  28.9790238  39.0221913  53.9503283  29.6273542  41.0107694
  53.6846614  30.4768024  41.6400212  54.9213208  29.8072780  40.5493560
  53.9583283  28.3233542  41.8077694  54.2620159  28.5004083  42.8395275
  54.6031362  27.5642575  41.3649436  52.4933283  27.8563542  41.7667694
  52.4419192  26.7691180  41.7086929  51.7163283  28.3343542  42.9777694
  51.9983283  27.8363542  44.0767694  50.7483283  29.2623542  42.8477694
  50.6223181  29.7236285  41.9581365  49.9193283  29.6793542  43.9617694
  50.5489412  29.8410165  44.8367278  49.1563283  30.9983542  43.6477694
  48.9691664  30.8603156  42.5828680  48.2070170  31.1115710  44.1713055
  50.0043283  32.2493542  43.8567694  51.1673283  32.1423542  44.3307694
  49.3993283  33.3473542  43.7037694  48.9213283  28.5873542  44.3657694
  48.4333283  28.5693542  45.4997694  48.6303283  27.6243542  43.4577694
  49.1339388  27.6457741  42.5825455  47.6013283  26.6143542  43.6357694
  47.0820673  26.8168955  44.5724893  46.5533283  26.5833542  42.4817694
  47.0733140  26.4106647  41.5394889  45.8720227  25.7552783  42.6772509
  45.7693283  27.8693542  42.3947694  46.3583283  29.0063542  41.8327694
  47.3764454  28.9374137  41.4496450  45.6653283  30.2143542  41.7577694
  46.1739157  31.0991275  41.3748634  44.3453283  30.3023542  42.1877694
  43.6973283  31.5413542  41.9997694  44.2594912  32.1994694  41.5844902
  43.7273283  29.1753542  42.7517694  42.7001254  29.2340462  43.1116442
  44.4413283  27.9633542  42.8517694  43.9653311  27.0847220  43.2871223
  48.2273283  25.2333542  43.7857694  48.8063283  24.6613542  42.8567694
  48.0963283  24.6373542  44.9847694  47.4670579  25.0644197  45.6493994
  48.7943283  23.4253542  45.3777694  49.6185641  23.2111467  44.6974388
  49.3453283  23.5093542  46.8017694  48.5097887  23.4554323  47.4996700
  50.3353283  22.3583542  47.0937694  51.1714322  22.4118948  46.3965143
  50.7075644  22.4486880  48.1142500  49.8259690  21.4018235  46.9767063
  50.0343283  24.8713542  47.0347694  49.3123606  25.6744124  46.8865729
  50.4206977  24.9141747  48.0530939  50.8570119  24.9883374  46.3293564
  47.8203283  22.2643542  45.3097694  46.6333283  22.4243542  45.6027694
  48.2663283  21.0613542  44.9067694  49.2180316  20.9980105  44.5745830
  47.4503283  19.8583542  44.8937694  46.5365703  20.0230781  44.3227952
  48.2513283  18.7093542  44.2267694  48.6423218  19.1112109  43.2920317
  49.0791241  18.4829864  44.8987901  47.4533283  17.4153542  43.9377694
  47.0573565  17.0510420  44.8857060  46.6275184  17.6756996  43.2756815
  48.3073283  16.3173542  43.2837694  48.6207239  16.6232947  42.2856298
  49.1872156  16.1072023  43.8918270  47.4883283  15.0573542  43.1677694
  47.5761894  14.4170574  43.9439136  46.6953283  14.7133542  42.1397694
  46.4913283  15.5253542  41.1077694  46.9400684  16.4298912  41.0844229
  45.8884801  15.2342243  40.3515174  46.0683283  13.5383542  42.1537694
  46.1923303  12.9125453  42.9367680  45.4717403  13.2785311  41.3813230
  46.9973283  19.3883542  46.2717694  47.8233283  19.0443542  47.1227694
  45.6823283  19.3183542  46.5297694  45.0196119  19.7194445  45.8816700
  45.1793283  18.7383542  47.7507694  45.9181220  18.0429378  48.1491149
  44.8913283  19.8213542  48.8207694  45.7861782  20.4342623  48.9288738
  44.0691587  20.4399593  48.4609572  44.5173283  19.2143542  50.1857694
  43.6111040  18.6246335  50.0476107  45.3335217  18.5593183  50.4904962
  44.2773283  20.2763542  51.2757694  45.1729846  20.8969440  51.3034674
  43.4308640  20.8757163  50.9405641  43.9913283  19.7283542  52.6807694
  43.7098967  20.5491530  53.3404558  43.1754190  19.0073520  52.6303008
  45.2023283  19.0653542  53.2087694  45.9583705  19.7333867  53.2560196
  45.0130079  18.7051958  54.1331847  45.4630303  18.3044819  52.5978628
  43.9273283  17.9263542  47.4697694  42.8523283  18.4643542  47.2067694
  44.0193283  16.5803542  47.5477694  44.8874503  16.1612062  47.8490641
  42.9033283  15.6973542  47.2107694  43.1661694  14.6828885  47.5105580
  42.0262941  16.0249121  47.7689953  42.5783283  15.7053542  45.7357694
  43.4383283  15.3733542  44.9117694  41.3413283  16.1233542  45.3957694
  40.7594601  16.4456837  46.1557907  40.7833283  16.1183542  44.0567694
  41.2826330  15.3672489  43.4446951  39.2633283  15.7793542  44.1197694
  38.7261830  16.5216040  44.7102264  38.8789248  15.7797566  43.0998019
  39.0653283  14.4013542  44.7357694  39.8483283  13.4873542  44.3787694
  38.1513283  14.2713542  45.5907694  40.9713283  17.4683542  43.3547694
  40.6183283  17.6393542  42.1857694  41.5693283  18.4773542  44.0307694
  41.9208516  18.3076938  44.9622983  41.6393283  19.8213542  43.5067694
  41.5162799  19.7476174  42.4262505  40.4883283  20.6833542  44.0777694
  40.6029220  20.7739318  45.1579379  40.5172400  21.6746557  43.6254580
  39.5328019  20.2096091  43.8527493  42.9833283  20.4763542  43.7607694
  43.8453283  19.9763542  44.4927694  43.2143283  21.6243542  43.1057694
  42.5157260  21.9170324  42.4376424  44.3533283  22.4773542  43.3197694
  45.0811137  21.9612219  43.9458964  45.0233283  22.8473542  41.9947694
  44.2787956  23.3250610  41.3579284  45.8275137  23.5525925  42.2045903
  45.5943283  21.6213542  41.2797694  46.3084395  21.1277252  41.9389178
  44.7797134  20.9350794  41.0484007  46.2913283  22.0303542  39.9947694
  46.4857462  21.1718326  39.3519309  45.7148477  22.7732275  39.4434903
  47.5973283  22.6363542  40.3917694  47.5532277  23.5965307  40.7019558
  48.7723283  21.9803542  40.4927694  48.8303283  20.6673542  40.3617694
  47.9857818  20.1429189  40.1834188  49.7189577  20.1938242  40.4405533
  49.8863283  22.6843542  40.5837694  49.8443904  23.6934579  40.5766281
  50.7748818  22.2102761  40.6600669  43.8573283  23.7413542  43.9527694
  42.9583283  24.3963542  43.4027694  44.3883283  24.1083542  45.1197694
  45.2380149  23.6649608  45.4384141  43.7813283  25.1073542  45.9627694
  42.9715299  25.6079318  45.4319702  43.2013283  24.4343542  47.2267694
  44.0609877  23.9494573  47.6893276  42.8151003  25.2033650  47.8957615
  42.1003283  23.3843542  46.9597694  42.4855729  22.6294932  46.2742971
  41.6763283  22.7123542  48.2757694  41.2905171  23.4665741  48.9616271
  40.8999004  21.9744603  48.0738460  42.5375051  22.2188712  48.7262687
  40.8723283  23.9893542  46.2547694  41.1743590  24.4116185  45.2963490
  40.1273717  23.2109650  46.0896901  40.4447457  24.7743540  46.8785060
  44.7863283  26.1723542  46.3797694  45.9803283  25.8753542  46.4957694
  44.3893283  27.4143542  46.6367694  43.0153283  27.8973542  46.4737694
  42.3677006  27.3044285  47.1196160  42.7240660  27.7497096  45.4338337
  43.0433283  29.3693542  46.8657694  42.7598750  29.5063391  47.9093155
  42.3837282  29.9600720  46.2300954  44.5083283  29.7443542  46.6307694
  44.7609709  30.5556454  47.3134679  44.7361052  30.0462243  45.6084721
  45.3103283  28.4843542  46.9967694  46.2175930  28.3765203  46.4023446
  45.6663283  28.4343542  48.4817694  45.3303283  29.3593542  49.2267694
  46.3853283  27.3893542  48.9467694  46.7348872  26.7459545  48.2511080
  46.6083283  27.0733542  50.3587694  45.6481595  26.8877424  50.8401458
  47.4983283  25.8203542  50.5317694  48.4005357  26.0397561  49.9608195
  47.7514540  25.7247030  51.5876474  46.8813283  24.4993542  50.0297694
  46.6405459  24.5827156  48.9699696  47.9003283  23.3673542  50.2357694
  48.1412685  23.2830742  51.2954597  47.4755698  22.4270369  49.8843659
  48.8078465  23.5880002  49.6737850  45.5583283  24.1473542  50.7357694
  44.8306927  24.9399357  50.5612404  45.1733201  23.2077001  50.3396380
  45.7334423  24.0449864  51.8067292  47.1913283  28.1863542  51.2197694
  46.8193283  28.3623542  52.3687694  48.0963283  29.0023542  50.6507694
  48.3981841  28.7961597  49.7092460  48.6983283  30.1293542  51.3337694
  49.0731670  29.8291556  52.3122764  49.8803283  30.6493542  50.4917694
  49.5386908  30.7517452  49.4617698  50.1629019  31.6281677  50.8792954
  51.0923283  29.7133542  50.5367694  51.2665263  29.4317995  51.5752697
  50.8564547  28.8228677  49.9541035  52.3533283  30.3763542  49.9687694
  52.5490437  31.2580232  50.5790597  53.1679771  29.6625188  50.0907765
  52.2513283  30.7863542  48.4997694  51.8917461  29.9474242  47.9039526
  51.5645852  31.6263302  48.3952542  53.5843283  31.1833542  48.0307694
  54.2207317  30.4050192  48.1271292  53.5319128  31.4572136  47.0600204
  53.9175277  31.9609897  48.5824579  47.7433283  31.2793542  51.6167694
  48.0333283  32.1273542  52.4617694  46.5793283  31.3283542  50.9477694
  46.3919245  30.6299581  50.2426297  45.5843283  32.3463542  51.1837694
  46.0285604  33.1852504  51.7195027  45.0213283  32.8623542  49.8347694
  44.7793957  32.0747483  49.1211555  44.1200726  33.4287445  50.0693760
  45.9653283  33.8213542  49.1217694  45.9563283  35.1863542  49.1727694
  45.1412215  35.6476836  49.7303317  47.0263283  35.7003542  48.4777694
  47.2273807  36.6812135  48.3451330  47.7583283  34.6653542  47.9707694
  48.9153283  34.6543542  47.2107694  49.3639642  35.6132054  46.9510988
  49.4363283  33.4183542  46.8237694  50.3628784  33.3754908  46.2512595
  48.7893283  32.2233542  47.1577694  49.1827033  31.2593591  46.8351720
  47.6153283  32.2323542  47.9177694  47.1402217  31.2830910  48.1653049
  47.1113283  33.4613542  48.3287694  44.4533283  31.7793542  52.0177694
  43.5743283  32.5083542  52.4547694  44.4413283  30.4603542  52.2927694
  45.2104704  29.8698005  52.0103404  43.2913283  29.8393542  52.9097694
  42.4013434  30.4318513  52.6977003  43.0723283  28.4093542  52.3697694
  44.0351529  27.8984079  52.3711526  42.3881992  27.8960047  53.0454466
  42.4893283  28.4003542  50.9457694  41.4157005  28.5680629  51.0311971
  42.9436844  29.2282317  50.4014520  42.7813283  26.8583542  50.0377694
  41.7203283  25.7513542  50.9987694  40.6911340  26.1080591  50.9585260
  41.7722008  24.7453644  50.5823628  42.0576602  25.7329009  52.0350937
  43.3703283  29.8183542  54.4217694  44.3963283  29.5153542  55.0257694
  42.2353283  30.1463542  55.0707694  41.4912820  30.5606816  54.5277895
  42.0553283  30.0243542  56.4937694  42.8523782  30.5932330  56.9725047
  40.7043283  30.6473542  56.8837694  39.8957575  30.0829559  56.4192613
  40.5901895  30.6197008  57.9674243  40.6682017  31.6815625  56.5414140
  42.1633283  28.5753542  57.0037694  41.8843283  27.6453542  56.2407694
  42.5693283  28.3163542  58.2527694  43.1493283  29.3283542  59.1147694
  42.4326478  30.1470202  59.1800012  44.0604586  29.6814037  58.6317615
  43.4233283  28.6773542  60.4727694  42.8778600  29.2131825  61.2495907
  44.4914780  28.7171805  60.6862443  42.9423283  27.2233542  60.3507694
  42.0605039  27.0167067  60.9572193  43.7569590  26.5685146  60.6600615
  42.6193283  26.9933542  58.8607694  43.4751796  26.4774149  58.4255413
  41.3703283  26.1573542  58.6597694  41.4853283  25.0273542  58.1887694
  40.1713283  26.6953542  58.9577694  40.1805827  27.6161015  59.3727851
  38.9023283  26.0153542  58.8267694  38.9353212  25.0542663  59.3399172
  37.7793283  26.8783542  59.4617694  36.9013999  26.2326234  59.4810747
  38.1111206  27.0701939  60.4821671  37.4163283  28.2273542  58.7717694
  37.4030354  27.9682906  57.7130862  36.4039938  28.4622732  59.1005415
  38.3113283  29.4363542  58.9857694  39.3773283  29.3743542  59.6457694
  37.8973283  30.5133542  58.4857694  38.5933283  25.6463542  57.3817694
  37.9913283  24.6243542  57.0687694  39.0483283  26.4773542  56.4287694
  39.4522824  27.3607417  56.7054405  38.9433283  26.1823542  55.0107694
  37.8999833  25.9086541  54.8538661  39.2773283  27.3543542  54.1097694
  40.3586625  27.4663853  54.0306132  38.6903283  27.0853542  52.7237694
  37.6088962  26.9736627  52.8020588  38.9219117  27.9201519  52.0622704
  39.1211254  26.1702106  52.3175345  38.6793283  28.5623542  54.5447694
  38.9191342  29.2723159  53.9447295  39.8303283  25.0263542  54.5637694
  39.4123283  24.1493542  53.8127694  41.1033283  24.9983542  55.0167694
  41.4074308  25.7731594  55.5888690  42.0623283  23.9283542  54.7297694
  42.1216457  23.6926559  53.6672126  43.4573283  24.2983542  55.2497694
  43.3418123  24.6994885  56.2566694  44.4303283  23.0853542  55.2837694
  44.5467157  22.6839410  54.2770807  45.4010531  23.4080102  55.6601830
  44.0260519  22.3128465  55.9379037  44.0713283  25.4553542  54.4327694
  44.4601006  25.0334357  53.5059783  43.2698714  26.1576564  54.2035580
  45.1983283  26.1893542  55.1727694  46.0004101  25.4877471  55.4019246
  45.5857676  26.9902725  54.5430711  44.8101810  26.6119661  56.0995060
  41.6903283  22.6023542  55.3627694  41.8343283  21.5383542  54.7277694
  41.2763283  22.6203542  56.6357694  41.2891409  23.5144640  57.1053466
  40.9403283  21.4443542  57.4087694  41.5315261  20.5928512  57.0718317
  41.2443283  21.6963542  58.9147694  40.8861165  22.6726497  59.2413128
  40.8082483  20.9207185  59.5443118  42.7393283  21.6743542  59.1717694
  43.4313283  20.4553542  59.0847694  42.8756986  19.5526827  58.8306833
  44.8103283  20.3863542  59.3177694  45.3248294  19.4271518  59.2601495
  45.5263283  21.5453542  59.6237694  46.5996562  21.4975861  59.8075775
  44.8593283  22.7713542  59.6937694  45.4186648  23.6826958  59.9051916
  43.4743283  22.8303542  59.4927694  42.9503538  23.7817461  59.5844426
  39.5073283  20.9543542  57.1897694  39.3133283  19.8003542  56.8057694
  38.4833283  21.8233542  57.3417694  38.6904391  22.8088056  57.4198078
  37.0953283  21.4033542  57.4187694  37.0374349  20.3291974  57.5946522
  36.3863283  22.1383542  58.5927694  36.3754977  23.2050475  58.3688337
  35.3622493  21.7702093  58.6546682  37.0903283  21.9063542  59.9237694
  37.6053283  20.7823542  60.1517694  37.1173283  22.8683542  60.7327694
  36.3363283  21.6993542  56.1167694  35.1743283  21.3313542  55.9587694
  36.9913283  22.3693542  55.1307694  37.9142769  22.7059391  55.3652385
  36.4083283  22.7773542  53.8527694  37.1399042  23.3687199  53.3021493
  35.9983283  21.5613542  52.9827694  35.2273723  21.0207823  53.5318670
  35.5760035  21.9569662  52.0590633  37.1583283  20.6023542  52.6477694
  37.7423189  21.0338589  51.8348368  37.7883829  20.4970783  53.5309739
  36.6373283  19.2273542  52.2267694  36.1819021  18.7086918  53.0703779
  35.9095714  19.3171078  51.4202872  37.8043283  18.4153542  51.7347694
  38.7248416  18.8238157  51.8116711  37.6923283  17.1823542  51.2187694
  36.5093283  16.5823542  51.1287694  35.6792996  17.0581015  51.4525237
  36.4460939  15.6535568  50.7370597  38.7643283  16.5323542  50.7667694
  39.6731367  16.9706789  50.8119230  38.6630535  15.6043885  50.3811246
  35.2783283  23.7893542  54.0077694  34.3353283  23.8453542  53.2087694
  35.3863283  24.6653542  55.0217694  36.2055663  24.5908013  55.6077646
  34.3833283  25.6553542  55.3647694  33.4076677  25.3855828  54.9605308
  34.2593283  25.8053542  56.8817694  35.2668409  25.7488085  57.2938620
  33.5913283  27.1263542  57.3327694  32.5835411  27.1834068  56.9214170
  33.5411210  27.1555892  58.4212202  34.1781308  27.9718726  56.9737944
  33.4473283  24.6043542  57.3997694  33.9664207  23.6791084  57.1496387
  33.3385147  24.6782113  58.4818065  32.4613177  24.6041977  56.9351364
  34.7233283  26.9783542  54.7127694  35.7903283  27.5513542  54.9257694
  33.8103283  27.5263542  53.8927694  32.9482403  27.0324399  53.7112419
  34.0133283  28.8103542  53.2547694  35.0144445  29.1670365  53.4969331
  33.8723283  28.7393542  51.7127694  32.9330908  28.2515876  51.4519708
  33.8592057  29.7680158  51.3525151  35.0123283  28.0013542  51.0757694
  34.9833283  26.6083542  50.9187694  34.1361851  26.0426557  51.3066264
  36.0313283  25.9433542  50.2697694  35.9937688  24.8605044  50.1509107
  37.1093283  26.6653542  49.7537694  38.1603283  25.9883542  49.1057694
  38.0321777  25.0374022  49.0763174  37.1513283  28.0543542  49.9057694
  37.9841678  28.6256668  49.4957928  36.1183283  28.7123542  50.5877694
  36.1685281  29.7898642  50.7444608  32.9733283  29.7753542  53.7857694
  31.7693283  29.5263542  53.6517694  33.3803283  30.9013542  54.3997694
  34.3704204  31.0256685  54.5558556  32.4663283  31.9093542  54.9227694
  31.5364493  31.7860192  54.3676003  32.1433283  31.8913542  56.4427694
  31.2698391  32.5174266  56.6248409  31.8563283  30.4633542  56.9197694
  32.7295932  29.8367546  56.7384383  31.6326935  30.4741126  57.9865266
  31.0023006  30.0621897  56.3740550  33.1603283  32.3783542  57.3067694
  32.8602790  32.3234170  58.2170181  33.0463283  33.2433542  54.5407694
  34.1623283  33.3163542  54.0147694  32.3563283  34.3633542  54.7947694
  31.3689050  34.2927001  54.9950256  32.9383283  35.6853542  54.6627694
  33.4768955  35.8647104  53.7322448  31.8483283  36.7403542  54.8307694
  31.0348063  36.5091751  54.1431368  31.3063283  36.7693542  56.2787694
  32.1192402  37.0009455  56.9669847  30.5319543  37.5319042  56.3622147
  30.8852088  35.7956832  56.5292135  32.3043283  38.1303542  54.3447694
  31.5585051  38.8536238  54.6745111  33.2583358  38.3485097  54.8247458
  32.4663283  38.2213542  52.8177694  31.5125503  38.0037622  52.3370812
  32.7890096  39.2262249  52.5453527  33.2123799  37.4986459  52.4873157
  34.1313283  35.9173542  55.6047694  35.0533283  36.6803542  55.3187694
  34.1813283  35.2163542  56.7597694  33.4013554  34.6158016  56.9857741
  35.2563283  35.3373542  57.7227694  35.5835534  36.3758195  57.7738843
  34.7943283  34.8933542  59.1347694  34.4334967  33.8689855  59.0422026
  35.6754090  34.9110892  59.7762382  33.6843283  35.7773542  59.7577694
  32.7690817  35.6144506  59.1886588  33.5180565  35.5013546  60.7990571
  34.0403283  37.2663542  59.6967694  33.3193283  38.0553542  59.0877694
  35.1863283  37.6443542  60.3097694  35.4653257  38.6149840  60.2979497
  35.7573160  36.9540871  60.7762517  36.5013283  34.5563542  57.3267694
  37.6063283  34.8713542  57.7707694  36.3713283  33.5333542  56.4507694
  35.4868855  33.0479474  56.4034367  37.5183283  32.9483542  55.7667694
  38.3627025  33.0156364  56.4527757  37.3673283  31.4673542  55.3067694
  38.3240857  31.1722238  54.8759415  37.1754524  30.8771913  56.2028673
  36.3293283  31.2403542  54.3577694  36.3036709  30.3085175  54.1283745
  38.0503283  33.8623542  54.6667694  39.2643283  33.9693542  54.5087694
  37.1793283  34.6293542  53.9547694  36.2041229  34.3671893  53.9732977
  37.5853283  35.7373542  53.0827694  38.3136870  35.3579327  52.3660881
  36.3993283  36.3813542  52.2957694  35.6430481  36.4539959  53.0773464
  36.6749339  37.3822052  51.9634461  35.8383283  35.5913542  51.1177694
  36.5183283  34.7203542  50.5227694  34.7003283  35.9543542  50.7197694
  38.3613283  36.8493542  53.8277694  39.3013283  37.4303542  53.2797694
  38.0273283  37.1733542  55.1057694  37.1355539  36.8478657  55.4505810
  38.8203283  38.0743542  55.9607694  38.9687927  39.0048421  55.4128189
  38.1763283  38.4003542  57.3157694  38.0129370  37.4684210  57.8569747
  39.0833283  39.3333542  58.1567694  39.2468031  40.2657460  57.6163784
  38.6009643  39.5466394  59.1106745  40.0412308  38.8450052  58.3357659
  36.8253283  39.1063542  57.0877694  36.1639313  38.4517497  56.5201877
  36.3686267  39.3375336  58.0500996  36.9866493  40.0297683  56.5315475
  40.2543283  37.5933542  56.1877694  41.2003283  38.3773542  56.1077694
  40.4813283  36.2803542  56.4177694  39.6970588  35.6573795  56.5478587
  41.8263283  35.7263542  56.5087694  42.3779517  36.2058273  57.3174203
  41.7433283  34.2023542  56.7997694  41.2579131  34.0100949  57.7565910
  41.1593919  33.7485564  55.9990286  43.0773283  33.4713542  56.8337694
  43.9133283  33.1843542  55.7907694  43.5548079  33.4432575  54.7945104
  45.0683283  32.6093542  56.2467694  45.8532158  32.3193722  55.6811180
  44.9773283  32.4793542  57.6037694  45.8583283  31.9593542  58.5257694
  46.8283528  31.6208751  58.1616498  45.4603283  31.8963542  59.8647694
  46.1194863  31.4547216  60.6121457  44.2153283  32.3963542  60.2677694
  43.8977753  32.3523814  61.3095592  43.3403283  32.9693542  59.3377694
  42.4012788  33.3976658  59.6882488  43.7263283  32.9853542  58.0097694
  42.6183283  35.9463542  55.2217694  43.7623283  36.4143542  55.2417694
  41.9893283  35.6583542  54.0667694  41.0631458  35.2637601  54.1478909
  42.5393283  35.8613542  52.7327694  43.4597664  35.2849919  52.6394988
  41.5633283  35.4163542  51.6207694  40.7127021  36.0979101  51.6247596
  42.0828650  35.4901206  50.6653950  41.1023283  34.0803542  51.8087694
  40.5009014  33.8463919  51.0980323  42.8813283  37.3133542  52.4517694
  43.9033283  37.6383542  51.8537694  42.0243283  38.2423542  52.9297694
  41.1239951  37.9047021  53.2387848  42.2583283  39.6723542  52.9287694
  42.4769334  40.0123603  51.9164914  40.9993283  40.4233542  53.4437694
  40.1518443  40.1901111  52.7992015  40.7568546  40.1569381  54.4725206
  41.1643283  41.9193542  53.4137694  41.0543283  42.6383542  52.2157694
  40.8359373  42.1064383  51.2897722  41.2223283  44.0273542  52.2017694
  41.1244996  44.5758446  51.2649191  41.5143283  44.7103542  53.3827694
  41.6416314  45.7928516  53.3731203  41.6433283  44.0033542  54.5787694
  41.8803669  44.5321207  55.5019806  41.4683283  42.6153542  54.5927694
  41.5680073  42.0628678  55.5270728  43.5103283  40.0603542  53.7177694
  44.3153283  40.8563542  53.2457694  43.7493283  39.4703542  54.9117694
  43.0239186  38.8958445  55.3165146  45.0083283  39.6223542  55.6487694
  45.1020970  40.6737855  55.9204289  44.9312469  39.0193489  56.5535027
  46.2393283  39.2013542  54.8807694  47.2793283  39.8543542  54.9467694
  46.1393283  38.1083542  54.0947694  45.3321965  37.5143125  54.2202766
  47.1903283  37.6653542  53.1807694  48.1512515  37.6940289  53.6944849
  46.9613283  36.2523542  52.6537694  46.0355468  36.2317378  52.0787888
  48.1373283  35.8213542  51.7507694  49.0634556  35.8412787  52.3252189
  47.9611668  34.8110961  51.3813831  48.2187163  36.5070023  50.9073452
  46.8273283  35.2733542  53.8397694  45.9826808  35.5690823  54.4620374
  46.6637474  34.2641511  53.4618142  47.7408054  35.2945774  54.4340842
  47.4153283  38.6513542  52.0387694  48.5493283  39.0213542  51.7397694
  46.3273283  39.1693542  51.4297694  45.4404721  38.7417617  51.6550472
  46.3493283  40.2283542  50.4287694  46.9713783  39.9360902  49.5827583
  44.9103283  40.4873542  49.9187694  44.6789110  39.6124004  49.3113147
  44.2593514  40.5046651  50.7928571  44.6853283  41.7663542  49.0847694
  44.8812250  42.6197864  49.7339064  45.5813283  41.8503542  47.8487694
  45.3856586  40.9974407  47.1988841  45.3709529  42.7736201  47.3089334
  46.6270646  41.8399717  48.1560610  43.2293283  41.8573542  48.6317694
  42.5775727  41.8841239  49.5050377  43.0869250  42.7647142  48.0448109
  42.9830683  40.9882503  48.0217585  46.9793283  41.5183542  50.9377694
  47.7743283  42.1533542  50.2387694  46.7173283  41.9343542  52.1897694
  45.9844102  41.4807322  52.7162269  47.4403283  43.0273542  52.8167694
  47.3032780  43.9318000  52.2240687  46.9433283  43.2983542  54.2517694
  47.0552564  42.3208152  54.7207992  47.6109795  44.0114048  54.7354022
  45.4913283  43.7743542  54.4017694  44.8198779  43.0843165  53.8907868
  45.1393283  43.8173542  55.9007694  45.8101045  44.5075840  56.4123757
  44.1098887  44.1540271  56.0232689  45.2485562  42.8209217  56.3288955
  45.2693283  45.1183542  53.7037694  45.4920703  45.0178447  52.6415155
  44.2313331  45.4264452  53.8292565  45.9262653  45.8692308  54.1427650
  48.9363283  42.7573542  52.9007694  49.7563283  43.6183542  52.5997694
  49.3503283  41.5273542  53.2587694  48.6915247  40.8653330  53.6432237
  50.7523283  41.1603542  53.2237694  51.3296817  41.8725072  53.8133458
  50.9723283  39.7413542  53.8067694  50.4373503  39.6823773  54.7546193
  50.6029144  38.9683148  53.1329419  52.4193283  39.4023542  54.1037694
  53.0823283  39.5173542  55.2887694  52.4890059  39.8492284  56.1407834
  54.4093283  39.1753542  55.1437694  55.1152552  39.1831084  55.8660620
  54.6123283  38.8073542  53.8267694  55.7583283  38.3703542  53.1637694
  56.6841401  38.2994195  53.7346806  55.6493283  38.0483542  51.8007694
  56.5203428  37.6969715  51.2476293  54.4283283  38.1723542  51.1337694
  54.3451436  37.9260461  50.0752270  53.2803283  38.6133542  51.7967694
  52.3452105  38.6936841  51.2425109  53.3903283  38.9293542  53.1487694
  51.3763283  41.2843542  51.8257694  52.4663283  41.8143542  51.6817694
  50.6583283  40.8403542  50.7607694  49.8068678  40.3373887  50.9660500
  51.0403283  41.0113542  49.3647694  52.0160505  40.5540148  49.2007382
  50.0133283  40.3483542  48.4047694  49.0659819  40.8497921  48.6027440
  50.3529920  40.5982390  47.3996395  49.8193283  38.8153542  48.5177694
  50.7813864  38.3314473  48.3493078  49.4582140  38.5672077  49.5158270
  48.8153283  38.3263542  47.4777694  49.2433283  37.9763542  46.3517694
  47.5883283  38.2983542  47.7727694  47.0859632  37.9703598  47.0233375
  51.1773283  42.4763542  48.9407694  52.1213283  42.8593542  48.2547694
  50.2383283  43.3573542  49.3557694  49.4074766  42.9960265  49.8021181
  50.3143283  44.7913542  49.0917694  50.5325680  44.9828417  48.0411490
  49.0153283  45.5053542  49.4817694  48.7460260  45.2117328  50.4963448
  49.1853283  47.0433542  49.4177694  49.4542004  47.3378008  48.4033190
  48.2488643  47.5249547  49.6991888  49.9727408  47.3513246  50.1056902
  47.8563283  45.0413542  48.5657694  48.0640525  45.4167094  47.5637415
  47.8676127  43.9514710  48.5545104  46.4763283  45.5333542  49.0197694
  46.4641280  46.6232297  49.0308339  45.7150799  45.1689770  48.3299656
  46.2676892  45.1579928  50.0216044  51.5083283  45.4413542  49.7607694
  52.2893283  46.1553542  49.1187694  51.7533283  45.1513542  51.0457694
  51.1685795  44.4778482  51.5196448  52.7803283  45.8323542  51.8137694
  52.9745325  46.8084764  51.3692817  52.3473283  46.0363542  53.2847694
  51.9235815  45.1427621  53.7430608  53.1912494  46.3842404  53.8804812
  51.2903283  47.1063542  53.3687694  51.6333283  48.4663542  53.4387694
  52.6861731  48.7451070  53.4825254  50.6453283  49.4583542  53.4527694
  50.9275500  50.5080580  53.5338470  49.2973283  49.1023542  53.3627694
  48.5238531  49.8698200  53.3339210  48.9443283  47.7543542  53.3097694
  47.8940826  47.4692913  53.2479366  49.9323283  46.7723542  53.3357694
  49.6536477  45.7185941  53.3305995  54.1043283  45.0863542  51.7447694
  55.0753283  45.4563542  52.4087694  54.2043283  44.0533542  50.8837694
  53.3445379  43.6576118  50.5312815  55.4613283  43.4723542  50.4437694
  56.2616426  43.8347559  51.0889525  55.4463283  41.9203542  50.4957694
  56.4649096  41.5794859  50.3102965  55.1450296  41.6321999  51.5028872
  54.5603283  41.3193542  49.5417694  54.5989944  40.3639092  49.6267968
  55.7863283  43.8753542  49.0157694  56.8083283  43.4683542  48.4517694
  54.9033283  44.6793542  48.3807694  54.0838176  44.9337739  48.9134721
  54.9343283  45.0073542  46.9667694  53.9469616  45.3740117  46.6861122
  55.9873283  46.0783542  46.5847694  56.9213878  45.6902687  46.9909981
  56.0479146  46.1043280  45.4967645  55.7473283  47.5063542  47.1207694
  55.6550902  47.4765752  48.2064518  56.9323283  48.4063542  46.7317694
  57.0249208  48.4370004  45.6461423  56.7630867  49.4144937  47.1100720
  57.8499794  48.0063026  47.1630182  54.4423283  48.1293542  46.6037694
  53.5977204  47.5135671  46.9128698  54.3299163  49.1323696  47.0153818
  54.4717889  48.1849370  45.5155867  54.9883283  43.7703542  46.0697694
  55.9443283  43.5523542  45.3097694  53.9733283  42.8903542  46.1857694
  53.3067961  43.0523500  46.9271138  53.7773283  41.7333542  45.3207694
  52.7598259  41.3748149  45.4764538  53.8895974  42.0702659  44.2902426
  54.7373283  40.6053542  45.5737694  55.0983283  39.8683542  44.6557694
  55.2353283  40.4283542  46.8127694  55.1739585  41.1766839  47.4882956
  55.9603283  39.2233542  47.1827694  56.6152855  39.0292286  46.3333899
  56.8303283  39.3813542  48.4517694  56.1879286  39.5672104  49.3125133
  57.4026130  38.4684271  48.6165561  57.5144337  40.2199316  48.3218197
  55.0393283  38.0203542  47.3497694  53.8743283  38.1453542  47.7097694
  55.5723283  36.8073542  47.0977694  56.5227420  36.7704425  46.7579891
  54.8503283  35.5513542  47.2707694  53.8590014  35.6233855  46.8233528
  55.6283283  34.3953542  46.5737694  55.7869802  34.7099075  45.5422729
  56.5895149  34.3213887  47.0824436  54.9813283  33.1183542  46.5887694
  55.5333540  32.4746539  46.1387501  54.6983283  35.2563542  48.7607694
  55.7243283  35.2993542  49.4457694  53.5233283  34.9933542  49.3477694
  52.2263283  35.1333542  48.6937694  52.0545675  34.2583703  48.0668709
  52.2432501  36.0279784  48.0713064  51.2203283  35.2403542  49.8417694
  50.2604131  34.8105279  49.5555679  51.0790189  36.2805169  50.1353585
  51.8753283  34.4423542  50.9637694  51.6776935  33.3736871  50.8801617
  51.5574302  34.7944263  51.9451387  53.3733283  34.7123542  50.7707694
  53.6738355  35.6122636  51.3073854  54.1843283  33.5423542  51.2607694
  54.5023283  32.6533542  50.4587694  54.4853283  33.5203542  52.5687694
  54.2653001  34.3703859  53.0679016  55.2623283  32.5003542  53.2537694
  55.5749549  32.8802311  54.2264242  54.4383283  31.2003542  53.4697694
  54.1248641  30.8011318  52.5051654  55.0772494  30.4743682  53.9725857
  53.2223283  31.4733542  54.3197694  53.3253283  31.5503542  55.7187694
  54.2978643  31.4080337  56.1899575  52.1933283  31.8073542  56.5087694
  52.2811368  31.8279883  57.5950317  50.9503283  32.0083542  55.9047694
  49.8123283  32.3133542  56.6737694  49.9971943  32.3613370  57.6145786
  50.8363283  31.9343542  54.5187694  49.8644334  32.0781648  54.0467108
  51.9643283  31.6763542  53.7327694  51.8735186  31.6306325  52.6475214
  56.6533283  32.2463542  52.6487694  56.9453283  31.1173542  52.2487694
  57.5293283  33.2553542  52.5217694  57.4023283  34.5543542  53.1987694
  57.0869852  34.3684640  54.2254650  56.6339125  35.1289679  52.6816086
  58.7793283  35.2163542  53.1177694  59.3327495  35.0611164  54.0439040
  58.6783206  36.2853510  52.9303007  59.4583283  34.5153542  51.9357694
  60.5390784  34.4370630  52.0538744  59.2319977  35.0555475  51.0164951
  58.8343283  33.1093542  51.8857694  58.6545973  32.8695236  50.8377826
  59.7153283  32.0363542  52.5067694  59.8843283  32.0053542  53.7227694
  60.2723283  31.1233542  51.6787694  60.0786505  31.1733602  50.6887757
  61.1493283  30.0593542  52.1597694  61.7608649  29.7469839  51.3132784
  61.7879132  30.4984527  52.9262557  60.4533283  28.8523542  52.7337694
  61.1053283  27.9503542  53.2527694  59.1143283  28.7833542  52.6567694
  58.6094431  29.5159932  52.1788255  58.3543283  27.7093542  53.2657694
  58.9891099  27.0939989  53.9033347  57.2013283  28.2513542  54.1037694
  56.5139768  28.7841924  53.4467073  56.4483283  27.1123542  54.8197694
  57.1349693  26.5793103  55.4774086  55.6320760  27.5299942  55.4091839
  56.0448190  26.4213479  54.0796396  57.7313283  29.2633542  55.1397694
  58.2187967  30.0906208  54.6239142  56.9007219  29.6449910  55.7335252
  58.4496013  28.7707388  55.7951432  57.7993283  26.7703542  52.2127694
  57.0773283  27.1683542  51.2917694  58.1153283  25.4653542  52.3187694
  58.8888661  25.2037153  52.9131462  57.4293283  24.4213542  51.5847694
  57.3839697  24.6850876  50.5281302  58.1713283  23.0743542  51.7257694
  59.2031579  23.2445024  51.4183989  58.1469840  22.8054204  52.7817912
  57.5703283  21.9303542  50.8917694  56.5126919  21.8344161  51.1373340
  57.6767552  22.1727395  49.8344025  58.2853283  20.6063542  51.1867694
  59.2377093  20.6320916  50.6572347  58.4681588  20.5738079  52.2608333
  57.5003283  19.3603542  50.7647694  56.4471251  19.6062001  50.6290365
  57.9019676  18.9587390  49.8344521  57.6363283  18.3503542  51.8367694
  57.2638257  18.7221433  52.6988103  57.1258793  17.5171969  51.5810533
  58.6121410  18.1220927  51.9624093  55.9893283  24.2583542  52.0537694
  55.7153283  24.1713542  53.2527694  55.0233283  24.2233542  51.1217694
  55.2806198  24.3533046  50.1537749  53.6133283  24.1813542  51.4587694
  53.4168761  24.4503612  52.4966234  52.8153283  25.1023542  50.5337694
  52.9515692  24.7635989  49.5067428  51.3103283  25.0893542  50.8847694
  51.1732439  25.4284546  51.9115700  50.7731989  25.7542142  50.2083421
  50.9215557  24.0762120  50.7823102  53.3973283  26.5483542  50.5567694
  54.4110522  26.4844153  50.1613248  52.7819729  27.1445304  49.8829659
  53.4293283  27.2113542  51.9417694  54.0449181  26.6159526  52.6160439
  53.8499699  28.2132475  51.8559224  52.4158382  27.2760656  52.3376861
  53.1583283  22.7323542  51.5007694  52.7543283  22.1343542  50.4947694
  53.2693283  22.1153542  52.6887694  53.6802440  22.6626139  53.4315712
  53.0103283  20.7213542  52.9317694  52.3753541  20.3045186  52.1500053
  54.3673283  19.9573542  52.9307694  54.1186080  18.9019963  53.0423813
  54.7605345  20.1335225  51.9295433  55.4193283  20.3433542  53.9647694
  55.1343283  21.1133542  54.9117694  56.5373283  19.7853542  53.7637694
  52.1463283  20.5063542  54.1707694  51.4643283  21.4153542  54.6627694
  52.1103283  19.2723542  54.6987694  52.5736908  18.5403740  54.1795396
  51.4023283  18.9123542  55.9107694  50.3484453  19.1789562  55.8310627
  51.5103283  17.3913542  56.1227694  52.5684260  17.1323599  56.0846834
  51.1189539  17.1732447  57.1164265  50.7373283  16.5593542  55.0697694
  49.7301721  16.9661977  54.9791304  51.2515673  16.6471147  54.1127137
  50.6573283  15.0863542  55.4717694  51.6913283  14.5353542  55.9207694
  49.5433283  14.5223542  55.3207694  51.8903283  19.6513542  57.1577694
  51.1013283  20.0733542  58.0107694  53.2153283  19.8573542  57.2887694
  53.8285963  19.4104272  56.6222426  53.8103283  20.5773542  58.3917694
  53.3574507  20.2435152  59.3253392  55.3223283  20.3403542  58.4687694
  55.7491052  20.5528678  57.4885660  55.7368557  21.0315867  59.2025709
  55.6663283  18.8883542  58.8767694  54.9345199  18.4784077  59.5728306
  55.6566628  18.3059591  57.9554542  57.0553283  18.8243542  59.5037694
  57.2293283  19.5793542  60.5047694  57.8893283  18.0083542  59.0527694
  53.5123283  22.0653542  58.3977694  53.3803283  22.6763542  59.4637694
  53.3793283  22.7033542  57.2127694  53.7210754  22.2394250  56.3832647
  52.8643283  24.0633542  57.0827694  53.4686315  24.7490746  57.6766586
  52.9173283  24.5183542  55.5847694  53.9579942  24.7692709  55.3794534
  52.5878084  23.7430008  54.8931453  52.1003283  25.7593542  55.2677694
  52.5753283  27.0503542  55.5437694  53.5844854  27.1756880  55.9361893
  51.7663283  28.1723542  55.3197694  52.1564080  29.1674081  55.5337931
  50.4683283  28.0223542  54.8257694  49.8391679  28.8947723  54.6492938
  49.9783283  26.7423542  54.5577694  48.9611994  26.6136764  54.1876464
  50.7943283  25.6243542  54.7647694  50.4203045  24.6266176  54.5351439
  51.4593283  24.1843542  57.6687694  51.2103283  25.0383542  58.5217694
  50.5443283  23.2723542  57.2867694  50.8161390  22.6048096  56.5792367
  49.1623283  23.2693542  57.7437694  48.7165777  24.2514497  57.5859913
  48.3393283  22.2193542  56.9547694  48.7894520  21.2283962  57.0138464
  47.3081588  22.1709019  57.3046863  48.2523283  22.6303542  55.1797694
  47.5153075  21.5800041  54.8298218  49.0333283  23.0703542  59.2477694
  48.2153283  23.7053542  59.9137694  49.8783283  22.1953542  59.8307694
  50.4183379  21.5819187  59.2373168  49.9843283  22.0303542  61.2687694
  49.0001625  21.8507680  61.7015115  50.8913283  20.8203542  61.5857694
  50.5416697  19.9794919  60.9867796  51.9065983  21.0812861  61.2870365
  50.8793283  20.4283542  63.0787694  51.3746777  21.2368885  63.6163586
  49.8326241  20.3807609  63.3791813  51.5683283  19.0953542  63.4107694
  51.5678501  18.9224567  64.4869688  51.0634514  18.2690619  62.9103298
  52.9943283  19.1503542  62.9317694  53.1956581  18.6597781  62.0721760
  54.0063283  19.7723542  63.5697694  53.8363283  20.4033542  64.7207694
  52.9219731  20.4286892  65.1490366  54.6217435  20.8566119  65.1654941
  55.2223283  19.7753542  63.0037694  55.3635924  19.3161671  62.1153485
  55.9911895  20.2367846  63.4685631  50.4823283  23.2673542  62.0217694
  49.8593283  23.6953542  62.9877694  51.5723283  23.9163542  61.5497694
  52.0764727  23.4900225  60.7854533  52.1063283  25.1433542  62.1317694
  52.3006223  24.9975364  63.1943541  53.4353283  25.5313542  61.4337694
  53.4213660  25.1032384  60.4314615  53.4684657  26.6185805  61.3634779
  54.6833283  25.0263542  62.1917694  55.0587753  25.8682812  62.7734044
  54.3433905  24.2414674  62.8674151  55.8053283  24.4813542  61.2987694
  56.6466684  24.1297333  61.8959365  55.4448551  23.6698740  60.6665841
  56.2773283  25.6083542  60.4157694  56.5118091  26.4749371  60.8785352
  56.3883283  25.5453542  59.0777694  56.0553283  24.4523542  58.4067694
  55.7095228  23.6440199  58.9038752  56.1488487  24.4326108  57.4013025
  56.8603283  26.5943542  58.4027694  57.1318561  27.4304095  58.9001468
  56.9440725  26.5478804  57.3973213  51.1223283  26.2973542  62.0807694
  51.0033283  27.0813542  63.0147694  50.3653283  26.4223542  60.9787694
  50.5445541  25.8110378  60.1950158  49.3223283  27.4163542  60.8487694
  49.7221699  28.4221665  60.9774839  48.7293283  27.3003542  59.4337694
  49.5884658  27.1403795  58.7823171  48.0698996  26.4338836  59.3839439
  47.9663283  28.5503542  58.9757694  47.2748674  28.8702304  59.7552960
  48.9823283  29.6713542  58.7007694  49.6738912  29.3523697  57.9209691
  48.4554306  30.5678215  58.3739271  49.5388811  29.8896230  59.6122013
  47.1163283  28.2263542  57.7377694  46.4012437  27.4410299  57.9827575
  46.5790871  29.1203494  57.4211533  47.7647115  27.8874739  56.9297729
  48.1993283  27.2793542  61.8757694  47.7233283  28.2713542  62.4507694
  47.7893283  26.0253542  62.1397694  48.1201356  25.3286075  61.4876882
  46.8743283  25.6093542  63.1847694  45.9652544  26.2093779  63.1440826
  46.4933283  24.1213542  62.9987694  46.4060653  23.9298185  61.9292843
  47.3002418  23.5156280  63.4111848  45.1703283  23.7553542  63.6947694
  45.2361612  24.1049635  64.7250801  44.3721723  24.2905272  63.1803387
  44.8663283  22.2483542  63.6837694  44.7098607  21.9505378  62.6469848
  45.7400922  21.7322421  64.0815940  43.6303283  21.8763542  64.5147694
  43.7894800  22.1809769  65.5491660  42.7597846  22.3952879  64.1135703
  43.4013283  20.4143542  64.4607694  44.2077039  19.9333243  64.8328829
  42.5866914  20.1806825  65.0101911  43.2534079  20.1319423  63.5024051
  47.3983283  25.8483542  64.6087694  46.6423283  26.2763542  65.4767694
  48.7093283  25.6023542  64.8607694  49.2099625  25.1238719  64.1255691
  49.4213283  25.8993542  66.1067694  48.8438033  25.5223167  66.9508113
  50.8363283  25.2313542  66.1307694  51.2462658  25.3123893  65.1240501
  51.4517883  25.8086961  66.8206864  50.8283283  23.7373542  66.5687694
  50.4650858  23.8282670  67.5924347  50.1146097  23.1607056  65.9803976
  52.1913283  23.0193542  66.5697694  52.9253283  23.0613542  65.5437694
  52.4573283  22.3033542  67.5667694  49.5683283  27.3983542  66.3767694
  49.7513283  27.8253542  67.5137694  49.4443283  28.2453542  65.3337694
  49.3419272  27.8618111  64.4050563  49.4513283  29.6943542  65.4857694
  48.5180995  30.0645623  65.0613532  49.4715132  29.9032338  66.5553774
  50.6003283  30.4003542  64.8287694  50.7553283  31.6063542  64.9987694
  51.4113283  29.7143542  64.0037694  51.3349282  28.7074024  63.9861507
  52.4463283  30.3473542  63.1807694  53.0765583  30.8953677  63.8811911
  53.3123283  29.3473542  62.4267694  52.6672893  28.8401084  61.7093249
  54.5013283  29.9803542  61.6877694  55.1471088  30.4874253  62.4046698
  55.0678203  29.2022076  61.1762287  54.1337911  30.7011524  60.9573812
  53.9123283  28.4553542  63.3497694  54.4587274  27.8241664  62.8757964
  51.8593283  31.3273542  62.1817694  50.8103283  31.0723542  61.5767694
  52.4993283  32.4923542  61.9857694  53.3449188  32.6502378  62.5150603
  52.0473283  33.5323542  61.0907694  51.3633827  33.1078771  60.3558294
  51.3053283  34.6583542  61.8687694  52.0089961  35.0673029  62.5938294
  51.0402759  35.4296076  61.1455714  50.0303283  34.1793542  62.6017694
  50.3225711  33.3621482  63.2612157  49.6659366  35.0150611  63.1991928
  48.9233283  33.7043542  61.6627694  48.6076384  34.5009937  60.9891194
  49.2434788  32.8412521  61.0791103  47.7593283  33.3043542  62.5097694
  47.2127670  34.0608352  62.8959126  47.4473283  32.0513542  62.8547694
  48.2133283  31.0103542  62.5417694  49.0680615  31.1540048  62.0232179
  47.9368545  30.0808439  62.8240325  46.2743283  31.8643542  63.4557694
  45.6682218  32.6532503  63.6300621  45.9958502  30.9344384  63.7347056
  53.2643283  34.0983542  60.3777694  54.4003283  33.9233542  60.8307694
  53.0653283  34.7633542  59.2187694  52.1380769  34.7273461  58.8200118
  54.0853283  35.5353542  58.5247694  54.9340727  34.8832274  58.3187044
  53.5843283  36.1323542  57.1877694  52.5684774  36.4965744  57.3410331
  54.2339610  36.9680034  56.9274468  53.5923283  35.1083542  56.0527694
  54.6037246  34.7069415  55.9891588  52.9029322  34.3120703  56.3334240
  53.1113283  35.7703542  54.4357694  51.3223283  35.7183542  54.7057694
  51.0651620  36.3429411  55.5612550  50.8094974  36.0894310  53.8184098
  51.0134432  34.6913282  54.9004713  54.5743283  36.7173542  59.3237694
  53.7763283  37.4173542  59.9437694  55.8883283  36.9953542  59.2637694
  56.4905219  36.2956504  58.8540416  56.4913283  38.2073542  59.7687694
  56.1535415  38.3838082  60.7899762  58.0373283  38.1023542  59.7697694
  58.3395354  37.8604010  58.7508343  58.4219587  39.0862403  60.0383354
  58.6063283  37.0463542  60.7387694  58.3192639  37.3264428  61.7523005
  58.1622669  36.0827253  60.4891080  60.1303283  36.9433542  60.6507694
  60.4514743  36.6528521  59.6504830  60.6083228  37.8833208  60.9266017
  60.5613283  35.8803542  61.6227694  59.8441606  35.3976972  62.1450835
  61.8423283  35.5403542  61.8297694  62.8203283  36.1543542  61.1737694
  62.5995451  36.8847677  60.5120664  63.7803716  35.8880562  61.3396067
  62.1593283  34.5813542  62.6987694  61.4292675  34.1041069  63.2080300
  63.1282273  34.3360581  62.8442456  56.0873283  39.4213542  58.9427694
  55.7503283  39.2923542  57.7607694  56.1063283  40.6223542  59.5627694
  56.2055787  40.5798722  60.5669825  55.9133283  41.9233542  58.9437694
  54.8388464  42.0265616  58.7923232  56.3833283  43.0283542  59.9167694
  57.4590013  42.9437106  60.0712464  56.1532615  44.0066756  59.4948018
  55.8696675  42.9150981  60.8714551  56.5933283  42.0993542  57.5767694
  57.7853283  41.8063542  57.4807694  55.9363283  42.5413542  56.5087694
  54.4913283  42.7283542  56.4407694  54.2197166  43.5206847  57.1382934
  54.0149191  41.7968440  56.7464197  54.1813283  43.0923542  54.9897694
  54.0345117  44.1674550  54.8863177  53.2891811  42.5695100  54.6450831
  55.4203283  42.6213542  54.2247694  55.5761863  43.3130786  53.3969261
  55.3537191  41.6038125  53.8397087  56.5843283  42.7293542  55.2217694
  57.3152223  41.9351206  55.0698311  57.2863283  44.0783542  55.1797694
  56.9963283  44.9393542  56.0167694  58.2033283  44.2813542  54.2147694
  58.2461515  43.5569803  53.5122397  59.1523283  45.3803542  54.1307694
  59.8413849  45.3622608  54.9751466  59.9723283  45.2243542  52.8157694
  59.2825333  45.1666598  51.9737756  60.5746457  46.1287675  52.7300355
  60.8863283  44.0023542  52.8087694  61.0493283  43.3563542  53.8707694
  61.4003283  43.6943542  51.7017694  58.5763283  46.8073542  54.1857694
  59.1743283  47.7183542  54.7427694  57.3823283  47.0323542  53.5917694
  56.8561818  46.2342215  53.2658040  56.8263283  48.3573542  53.3787694
  57.5868211  49.1100608  53.5865740  56.3453283  48.5293542  51.9107694
  55.4348492  47.9606044  51.7219552  56.1460460  49.5913338  51.7672918
  57.4173283  48.0883542  50.9567694  58.5233283  48.9023542  50.6717694
  58.6096875  49.8763589  51.1533878  59.5143283  48.4723542  49.7747694
  60.3408947  49.1334459  49.5142938  59.4283283  47.2003542  49.1997694
  60.3913283  46.7003542  48.3017694  61.1031483  47.3214342  48.1309727
  58.3653283  46.3643542  49.5267694  58.3228356  45.3548137  49.1179628
  57.3543283  46.8163542  50.3767694  56.5004236  46.1756694  50.5969281
  55.6483283  48.6223542  54.3067694  54.8923283  49.5713542  54.1117694
  55.4403283  47.7673542  55.3317694  56.0382025  46.9563859  55.4023122
  54.3203283  47.8863542  56.2647694  53.4263094  48.2496206  55.7579491
  53.9853283  46.5673542  56.9607694  54.0863835  45.7694488  56.2250825
  54.8983283  46.2733542  58.1647694  54.7974603  47.0706502  58.9011419
  54.6106141  45.3239125  58.6163003  55.9343155  46.2170280  57.8306161
  52.6353283  46.5163542  57.3987694  52.4699148  45.6739275  57.8283692
  54.4453283  48.9693542  57.3207694  55.5463283  49.3713542  57.7227694
  53.3103283  49.4553542  57.8477694  52.4531896  49.2804946  57.3429559
  53.2453283  50.2583542  59.0627694  54.2024485  50.7744335  59.1381501
  52.1213283  51.3023542  59.0967694  52.1339089  51.8264206  60.0524348
  52.3403283  52.3043542  57.9637694  52.3274108  51.7810557  57.0076881
  51.5461610  53.0507770  57.9795909  53.3038321  52.7968897  58.0948030
  50.8243283  50.7703542  58.9037694  50.1789414  51.4802137  58.9380553
  53.0923283  49.2883542  60.2267694  52.6523283  48.1543542  59.9987694
  53.4283283  49.6023542  61.4767694  54.0793283  50.8463542  61.8717694
  53.3711968  51.6625561  61.7287154  54.9442313  50.9990752  61.2262323
  54.4723283  50.6593542  63.3397694  54.3752346  51.6007544  63.8805443
  55.4996380  50.3026437  63.4138904  53.4883283  49.6073542  63.8657694
  52.6261534  50.0534887  64.3614682  54.0073040  48.9493930  64.5627995
  53.0283283  48.8093542  62.6347694  53.5974466  47.8806617  62.5931398
  51.5393283  48.4893542  62.7047694  51.1903283  47.3313542  62.9397694
  50.6443283  49.4793542  62.4967694  51.0150585  50.4111714  62.3768728
  49.2033283  49.3063542  62.4927694  48.8995277  48.8474556  63.4336288
  48.4513283  50.6533542  62.3327694  48.7158993  51.0557167  61.3549116
  47.3844358  50.4314479  62.3572229  48.7863283  51.6953542  63.4267694
  47.9543023  52.3994661  63.4345151  48.8411913  51.1879345  64.3898968
  50.0943283  52.4533542  63.1737694  50.8123283  52.1243542  62.1907694
  50.3973283  53.3503542  63.9937694  48.6963283  48.3663542  61.4207694
  47.8303283  47.5293542  61.6777694  49.2283283  48.4523542  60.1857694
  49.8494822  49.2219351  59.9808002  48.8863283  47.5413542  59.1127694
  47.8010452  47.4954032  59.0225021  49.4773283  47.9833542  57.7527694
  50.4972549  48.3154392  57.9465956  49.4986030  47.0982131  57.1170236
  48.6983283  49.1063542  57.0427694  48.7996189  49.9996874  57.6590460
  49.1863936  49.2710194  56.0821552  46.9303283  48.7673542  56.7657694
  46.9383283  46.9983542  56.3447694  47.3552232  46.4285842  57.1752270
  45.9183915  46.6655458  56.1522388  47.5461741  46.8390500  55.4541253
  49.2933283  46.1073542  59.3687694  48.5443283  45.1843542  59.0617694
  50.4863283  45.8763542  59.9557694  51.1622806  46.6230066  60.0312546
  50.8803283  44.5483542  60.3777694  50.7537415  43.8531646  59.5478378
  52.3623283  44.5153542  60.8297694  52.9262861  44.8844206  59.9731243
  52.5435925  45.1611284  61.6889661  52.8043283  43.1113542  61.1547694
  52.6273283  42.0493542  60.2497694  52.1926187  42.2481524  59.2701744
  53.0043283  40.7443542  60.5977694  52.8336548  39.9196798  59.9057546
  53.5823283  40.5003542  61.8467694  54.0733283  39.2353542  62.2037694
  53.9668225  38.5817981  61.5087006  53.7033283  41.5313542  62.7717694
  54.0952795  41.3254460  63.7677998  53.3233283  42.8293542  62.4257694
  53.4286906  43.6388913  63.1480219  49.9563283  43.9843542  61.4597694
  49.5303283  42.8413542  61.3637694  49.5663283  44.7963542  62.4737694
  50.0088585  45.6968286  62.5895807  48.6193283  44.3563542  63.4897694
  48.9698120  43.4244704  63.9334506  48.4703283  45.4153542  64.6137694
  49.4805664  45.7000339  64.9078369  47.9671263  46.2730268  64.1673554
  47.6793283  44.9453542  65.8667694  47.7826250  45.7046928  66.6419052
  46.6249874  44.8191378  65.6207274  48.2173283  43.6193542  66.4067694
  49.4053283  43.5063542  66.7177694  47.3573283  42.5793542  66.5067694
  47.6830058  41.6908740  66.8598113  46.3936564  42.6963065  66.2279149
  47.2693283  43.9643542  62.8947694  46.7353283  42.9043542  63.1977694
  46.7633283  44.7543542  61.9217694  47.2222148  45.6389075  61.7571849
  45.5733283  44.4293542  61.1267694  44.7369509  44.3583294  61.8221308
  45.2513283  45.4993542  60.0827694  46.0859208  45.5498261  59.3834782
  43.9573283  45.1963542  59.3137694  43.1221569  45.1461858  60.0123905
  43.7738094  45.9858603  58.5850033  44.0561142  44.2416118  58.7972338
  45.0353283  46.7663542  60.6777694  44.8364659  47.4109244  59.9947003
  45.6733283  43.0913542  60.3837694  44.7103283  42.3303542  60.3097694
  46.8523283  42.7383542  59.8147694  47.5932185  43.4239879  59.7817922
  47.1003283  41.4213542  59.2307694  46.3535111  41.2373340  58.4584354
  48.5133283  41.2983542  58.5947694  49.2295991  41.5054676  59.3898540
  48.6184714  40.2624017  58.2725157  48.7833283  42.2343542  57.4057694
  48.1476596  41.9060696  56.5834220  48.4915914  43.2392485  57.7110218
  50.5203283  42.2573542  56.8487694  50.4563283  43.9533542  56.1967694
  50.2012492  44.6430808  57.0013257  51.4288215  44.2213481  55.7838081
  49.7004887  44.0138577  55.4137324  46.9823283  40.2943542  60.2507694
  46.3573283  39.2693542  59.9887694  47.5563283  40.4853542  61.4577694
  48.1557580  41.2919447  61.5587406  47.4383283  39.5683542  62.5817694
  47.7439556  38.5725503  62.2607307  48.3223283  39.9953542  63.7767694
  47.9484377  40.9907729  64.0164498  48.1494762  39.3295506  64.6223034
  49.8333283  40.0713542  63.4837694  50.0056809  40.7707269  62.6656782
  50.5883283  40.5503542  64.7347694  50.4168201  39.8511886  65.5532138
  51.6554604  40.6010957  64.5185400  50.2286534  41.5388053  65.0205993
  50.4163283  38.7423542  62.9697694  49.9147564  38.4586601  62.0445436
  51.4834325  38.8615153  62.7821780  50.2641363  37.9646400  63.7181658
  46.0073283  39.3723542  63.0707694  45.5893283  38.2383542  63.3027694
  45.2163283  40.4633542  63.1767694  45.6737691  41.3547288  63.0491040
  43.8023283  40.4563542  63.5107694  43.6446893  39.9775450  64.4772015
  43.2793283  41.9203542  63.5897694  43.4868676  42.3912359  62.6288859
  42.2014505  41.8700511  63.7438764  43.9163283  42.7453542  64.7097694
  44.6423283  42.1853542  65.5717694  43.6683283  43.9773542  64.7007694
  42.9683283  39.6473542  62.5057694  42.1313283  38.8183542  62.8647694
  43.2393283  39.8113542  61.1907694  43.8622438  40.5625983  60.9305617
  42.6293283  39.0223542  60.1307694  41.5462383  39.0350313  60.2526488
  42.9763283  39.5813542  58.7277694  44.0566495  39.6691519  58.6124572
  42.5806272  38.9264520  57.9514809  42.2963283  41.2353542  58.3877694
  42.7938671  41.3402833  57.1588092  43.0093283  37.5483542  60.1927694
  42.2383283  36.6773542  59.7927694  44.1943283  37.2213542  60.7417694
  44.8215408  37.9713887  60.9950518  44.6573283  35.8593542  60.8937694
  44.0691542  35.2139919  60.2413448  46.1443283  35.6983542  60.5337694
  46.7561412  36.2853079  61.2188020  46.4246974  34.6475389  60.6064358
  46.5043283  36.1433542  59.1487694  45.7763283  36.0813542  57.9977694
  44.7887825  35.6281484  58.0841265  46.4723283  36.6243542  56.9387694
  46.1664822  36.7120659  55.9801953  47.6993283  37.0453542  57.4357694
  48.7673283  37.6723542  56.7847694  48.6710936  37.8966618  55.7224495
  49.9083283  37.9753542  57.5537694  50.7683934  38.4524678  57.0839283
  49.9613283  37.6753542  58.9147694  50.8457471  37.9105316  59.5068796
  48.8773283  37.0613542  59.5637694  48.9251245  36.8668333  60.6352067
  47.7603283  36.7533542  58.7837694  44.4033283  35.3003542  62.2807694
  45.1033283  34.3913542  62.7517694  43.3663283  35.7903542  62.9927694
  42.9929406  36.7034609  62.7761659  42.8923283  35.1193542  64.1887694
  43.7410367  34.9389699  64.8485078  41.8383283  35.9463542  64.9557694
  41.9834017  37.0224309  64.8603128  40.8606014  35.6753217  64.5574083
  41.8013283  35.6493542  66.4137694  41.1453283  34.5203542  66.8707694
  40.6986339  33.7851813  66.3415391  41.2193283  34.5933542  68.1787694
  40.7412973  33.7913879  68.7412953  41.9023283  35.6943542  68.5977694
  42.2763283  36.3713542  67.4537694  42.8440072  37.2987095  67.5302806
  42.4343283  33.6843542  63.9007694  41.8813283  33.3883542  62.8317694
  42.7233283  32.7213542  64.8047694  43.1604591  32.9682226  65.6811666
  42.4203283  31.3133542  64.5537694  42.8190102  31.0476931  63.5747004
  42.9136086  30.7160957  65.3206177  40.9503283  31.0203542  64.5777694
  40.4753283  30.2163542  63.7787694  40.1973283  31.7133542  65.4437694
  40.6757555  32.3378233  66.0772085  38.7613283  31.6063542  65.5427694
  38.4418182  30.5821588  65.3503212  38.3173283  32.0033542  66.9757694
  38.7221122  31.2389290  67.6390215  38.7987005  32.9583488  67.1864020
  36.7923283  32.1323542  67.2077694  36.6472066  32.1813438  68.2869545
  36.4405167  33.0578800  66.7519956  36.0063283  30.9593542  66.6437694
  36.3263283  29.7973542  66.9857694  35.0873283  31.2483542  65.8287694
  38.1613283  32.5433542  64.4827694  38.5213283  33.7253542  64.4777694
  37.3043283  32.1333542  63.5447694  37.0363283  30.7253542  63.2677694
  36.3311464  30.3591213  64.0138875  37.9738443  30.1760899  63.3542081
  36.4663283  30.6843542  61.8527694  35.7126689  29.9017691  61.7652645
  37.2586712  30.5079755  61.1253186  35.8543283  32.0713542  61.6667694
  34.8282232  32.1070565  62.0327374  35.8781554  32.3830411  60.6225553
  36.7433283  32.9993542  62.5117694  37.5807334  33.3883583  61.9325227
  35.9193283  34.1523542  63.0427694  35.8553283  35.1883542  62.3637694
  35.2543283  33.9843542  64.2047694  35.2965338  33.0614036  64.6127894
  34.3923283  34.9833542  64.8367694  33.8191203  35.4822138  64.0553151
  33.3943283  34.3803542  65.8817694  32.6171935  35.1295168  66.0331499
  32.9595637  33.4953589  65.4171586  33.9663283  34.0233542  67.1467694
  33.2825589  33.6649934  67.7174153  35.1303283  36.1453542  65.4777694
  34.5643283  37.2203542  65.6417694  36.4263283  35.9713542  65.8197694
  36.8762011  35.0926906  65.6060778  37.2123283  37.0083542  66.4627694
  36.5587025  37.7069241  66.9851415  38.1773283  36.3683542  67.4927694
  38.6630306  35.5340294  66.9867113  38.9206036  37.1277285  67.7356533
  37.5103283  35.8633542  68.7967694  36.6446279  35.2462212  68.5563311
  38.2520761  35.2598393  69.3199157  37.0613283  36.9963542  69.7217694
  35.8873283  37.1653542  70.0377694  38.0353283  37.7953542  70.2167694
  37.7937898  38.5586517  70.8325108  38.9992545  37.6246511  69.9681571
  38.0673283  37.7793542  65.4707694  38.7433283  38.7393542  65.8357694
  38.0623283  37.3913542  64.1797694  37.6614503  36.4964124  63.9379526
  38.5833283  38.2233542  63.1107694  39.5955733  38.5420650  63.3595319
  38.6233283  37.4503542  61.7667694  37.6027618  37.1276001  61.5609222
  38.9390147  38.1632445  61.0050414  39.5613283  36.2293542  61.7467694
  40.5873006  36.5972270  61.7590729  39.3728831  35.6496829  62.6504130
  39.3523283  35.3373542  60.5137694  38.2932768  35.1451313  60.3418413
  39.7884506  35.7888780  59.6226897  40.0433283  34.0273542  60.7777694
  40.8464915  34.0390722  61.3900528  39.6963283  32.8633542  60.1947694
  38.8053283  32.8243542  59.2197694  38.3725287  33.6793720  58.9008194
  38.5612061  31.9397072  58.7979830  40.1963283  31.7183542  60.6417694
  40.8386077  31.7214101  61.4212359  39.9323161  30.8490714  60.2004716
  37.6683283  39.4323542  62.9167694  36.4643283  39.2633542  63.1137694
  38.1143283  40.6263542  62.5347694  39.5033283  40.9143542  62.1877694
  39.9056259  40.0565318  61.6488837  40.0636132  41.0577192  63.1116884
  39.4603283  42.1793542  61.3297694  39.4367168  41.9252355  60.2700689
  40.3252577  42.8110315  61.5322101  38.1643283  42.8693542  61.7687694
  37.7230130  43.4437687  60.9542832  38.3358755  43.5241234  62.6231396
  37.2223283  41.7203542  62.1687694  36.6525824  41.9823720  63.0603043
  36.2673283  41.3893542  61.0387694  36.5383283  40.4953542  60.2257694
  35.1433283  42.1113542  60.9427694  34.8141297  42.5976076  61.7645268
  34.3023283  42.1163542  59.7547694  34.3304263  41.0944294  59.3766431
  32.8353283  42.5223542  59.9637694  32.2597102  42.2954526  59.0663956
  32.2643283  41.7393542  61.1467694  32.8391843  41.9661124  62.0446675
  31.2230585  42.0219930  61.3015972  32.3231760  40.6710665  60.9384452
  32.6153283  43.8873542  60.2857694  31.6744068  44.0424061  60.3963398
  34.9213283  42.9573542  58.6587694  35.8273283  43.7633542  58.8897694
  34.4573283  42.8273542  57.3957694  33.9454682  42.0008457  57.1219406
  34.8233283  43.7843542  56.3647694  35.9085999  43.8848413  56.3510900
  34.3503283  43.3573542  54.9607694  33.3401255  42.9484536  54.9805112
  34.3997409  44.1672900  54.2329903  35.2443283  42.2673542  54.4507694
  36.5793283  42.5643542  54.1437694  36.9496391  43.5764024  54.3072569
  37.4313283  41.5833542  53.6347694  38.4647821  41.8317878  53.3932023
  36.9603283  40.2833542  53.4347694  37.6186498  39.5168356  53.0259149
  35.6373283  39.9673542  53.7617694  35.2728815  38.9486494  53.6294089
  34.7813283  40.9583542  54.2587694  33.7466216  40.7142293  54.4993622
  34.3923283  45.2143542  56.6847694  35.1573283  46.1393542  56.4637694
  33.1993283  45.4043542  57.2997694  32.6190081  44.5882907  57.4315580
  32.7203283  46.6813542  57.8087694  32.5580541  47.3733177  56.9823598
  31.3673283  46.4873542  58.5717694  31.6118480  45.8661761  59.4334232
  31.0854375  47.4840226  58.9113126  30.2723283  45.8993542  57.8537694
  29.5078592  45.8369250  58.4310816  33.6743283  47.3293542  58.8157694
  34.0433283  48.4933542  58.6897694  34.1723283  46.5693542  59.8167694
  33.7934817  45.6417327  59.9436276  35.1703283  47.0433542  60.7657694
  34.8536282  47.9883659  61.2070777  35.3413283  46.0083542  61.8907694
  35.5718048  45.0465454  61.4326170  36.1779731  46.3228236  62.5146561
  34.0693283  45.8723542  62.7637694  34.1198629  46.7082776  63.4614649
  33.1688731  45.9609948  62.1559682  34.0293283  44.5623542  63.5427694
  34.7803283  43.6263542  63.1647694  33.1963283  44.4613542  64.4737694
  36.5193283  47.3503542  60.1147694  37.1853283  48.3373542  60.4247694
  36.9433283  46.5173542  59.1357694  36.4573934  45.6401887  59.0151571
  38.1133283  46.7773542  58.3097694  38.9767850  46.9363370  58.9557309
  38.4213283  45.5983542  57.3527694  37.4447816  45.3374891  56.9448415
  39.0822155  45.9069485  56.5427708  39.0223283  44.3743542  58.0667694
  38.4639699  44.2012233  58.9867490  38.9533283  43.1203542  57.1827694
  39.5118876  43.2925697  56.2627411  39.3859369  42.2743937  57.7169056
  37.9131192  42.9028444  56.9403756  40.4643283  44.6423542  58.5397694
  40.4690728  45.4816577  59.2352164  40.8542884  43.7553209  59.0389730
  41.0909978  44.8799101  57.6801465  38.0273283  48.0633542  57.4967694
  38.9973283  48.8183542  57.4467694  36.8673283  48.3783542  56.8787694
  36.1327111  47.6852799  56.8879818  36.6253283  49.6363542  56.1717694
  37.3560973  49.7699367  55.3741281  35.2243283  49.6793542  55.5627694
  34.5248664  49.3438267  56.3284544  34.8093283  51.0863542  55.0657694
  35.5081074  51.4223815  54.2996791  33.8043831  51.0421825  54.6459665
  34.8230215  51.7860944  55.9013995  35.1633283  48.6993542  54.3817694
  35.3802558  47.6909562  54.7341584  34.1669421  48.7229697  53.9404572
  35.8994376  48.9876415  53.6313466  36.7903283  50.8383542  57.0837694
  37.5073283  51.7863542  56.7527694  36.1743283  50.8033542  58.2827694
  35.5757578  50.0174163  58.4928036  36.2953283  51.8593542  59.2707694
  35.9894071  52.8143480  58.8435713  35.3843283  51.5433542  60.4737694
  34.3817798  51.3823510  60.0774442  35.7530909  50.6173585  60.9149566
  35.3393283  52.6483542  61.5567694  36.3565239  52.8133808  61.9119879
  34.9695542  53.5563857  61.0804869  34.4383283  52.2903542  62.7397694
  33.8393283  51.1863542  62.7447694  34.3593283  53.1443542  63.6587694
  37.7173283  52.0703542  59.7727694  38.2453283  53.1793542  59.7827694
  38.4103283  50.9713542  60.1367694  37.9333176  50.0815235  60.1643641
  39.7943283  51.0223542  60.5627694  39.9160028  51.7305235  61.3823978
  40.2213283  49.6253542  61.0517694  39.5857926  49.3028463  61.8765011
  40.1471583  48.9078979  60.2345452  41.6233283  49.5643542  61.5457694
  42.0373283  50.4713542  62.4987694  41.5151942  51.2128206  62.9434077
  43.2953283  50.1703542  62.7247694  43.8224358  50.7793976  63.4591554
  43.7143283  49.1193542  61.9727694  42.6343283  48.7333542  61.2087694
  42.7296327  47.9009378  60.5115597  40.7593283  51.5193542  59.4887694
  41.5633283  52.4243542  59.7247694  40.6793283  51.0033542  58.2467694
  40.0748846  50.2082424  58.0966217  41.5293283  51.4413542  57.1487694
  42.5649295  51.4663490  57.4878927  41.4313283  50.4953542  55.9297694
  40.3639171  50.4387736  55.7163891  41.9499721  50.9276027  55.0740417
  41.9783283  49.0753542  56.1997694  41.5394217  48.6927768  57.1212337
  41.6223283  48.1413542  55.0387694  42.0613061  48.5230554  54.1169769
  42.0132161  47.1441563  55.2410164  40.5388111  48.0913746  54.9310994
  43.4923283  49.0693542  56.4497694  43.7202431  49.6881029  57.3177005
  43.8266113  48.0483994  56.6341804  44.0070889  49.4672929  55.5752608
  41.2873283  52.8903542  56.7547694  42.2243283  53.6323542  56.4807694
  40.0123283  53.3443542  56.7787694  39.2627518  52.6800582  56.9089433
  39.6683283  54.7543542  56.6247694  39.9832580  55.0534342  55.6250346
  38.5836047  54.8294885  56.7011162  40.3003283  55.6863542  57.6407694
  40.7553283  56.7723542  57.2897694  40.3803283  55.2653542  58.9207694
  39.8596618  54.4330168  59.1578774  41.1073283  55.9533542  59.9837694
  40.7997991  56.9987455  60.0098832  40.8293283  55.3213542  61.3687694
  40.9946048  54.2464151  61.2960451  41.4802552  55.7373078  62.1377797
  39.3783283  55.5653542  61.7737694  38.6993283  56.4433542  61.2487694
  38.8983283  54.7853542  62.7727694  37.9446508  54.8999383  63.0849704
  39.4964599  54.0930067  63.2005478  42.6183283  55.9933542  59.7727694
  43.2673283  57.0063542  59.9957694  43.2273283  54.8763542  59.3187694
  42.6941348  54.0201396  59.2668022  44.6453283  54.8283542  58.9867694
  45.2138583  55.2382031  59.8215728  45.1433283  53.3933542  58.7077694
  44.5237118  53.0739272  57.8698309  46.1879594  53.4187041  58.3976029
  44.9783283  52.4003542  59.8767694  43.9198175  52.2908796  60.1127163
  45.5583283  51.0333542  59.4787694  46.6169927  51.1419485  59.2431092
  45.4407175  50.3334049  60.3060175  45.0290827  50.6541205  58.6045947
  45.6053283  52.8983542  61.1897694  45.1335718  53.8353086  61.4858466
  45.4539817  52.1532606  61.9708142  46.6734584  53.0599604  61.0445778
  45.0323283  55.7143542  57.8137694  46.1123283  56.2913542  57.7867694
  44.1303283  55.8413542  56.8197694  43.3628473  55.1847933  56.8196630
  44.2473283  56.7623542  55.7057694  45.2091591  56.6465878  55.2061906
  43.1213283  56.4463542  54.6907694  42.9261696  55.3844946  54.8406575
  42.2511465  57.0229877  55.0044211  43.4033283  56.7123542  53.1917694
  43.2585435  57.7799008  53.0259910  44.8153283  56.3073542  52.7257694
  44.9606983  55.2397745  52.8908150  44.9255713  56.5286834  51.6641854
  45.5598396  56.8667419  53.2922399  42.3583283  55.9393542  52.3667694
  41.3587853  56.2862209  52.6288698  42.5346474  56.1098289  51.3047189
  42.4406349  54.8739469  52.5817856  44.2593283  58.2403542  56.1187694
  44.9933283  59.0313542  55.5627694  43.4363283  58.6093542  57.1307694
  42.8091629  57.8968709  57.4759222  43.4263283  59.9263542  57.7887694
  43.3392093  60.7187349  57.0453703  42.2203283  60.0163542  58.7497694
  42.2851911  59.1549331  59.4144843  42.3488677  60.9313356  59.3280311
  40.8453283  60.0323542  58.0657694  40.6933218  60.9931491  57.5739687
  40.7512121  59.2308303  57.3331006  39.7623283  59.8513542  59.1297694
  39.7743283  60.4843542  60.1837694  38.8023283  58.9363542  58.8607694
  38.0615972  58.7749794  59.5281352  38.8308756  58.4189314  57.9938437
  44.6213283  60.2313542  58.6667694  44.9463283  61.4413542  58.8767694
  45.2173283  59.2513542  59.3247694  44.7308580  58.3662654  59.3327580
  46.4413283  59.3683542  60.0877694  46.3454746  60.2796374  60.6780864
  46.5733283  58.1693542  61.0497694  46.6792967  57.2503301  60.4733446
  47.4512260  58.3046630  61.6815031  45.6828494  58.1048031  61.6750530
  47.7083283  59.4983542  59.2367694  48.6833283  60.1163542  59.6847694
  47.7223283  58.8923542  58.0387694  47.0013172  58.1984741  57.9017559
  48.6903283  59.0963542  56.9787694  49.7135562  59.0730478  57.3536838
  48.4993283  57.9173542  55.9807694  48.5245518  56.9605827  56.5023548
  47.5113850  58.0672736  55.5453475  49.5243283  57.8863542  54.8597694
  50.5333283  57.1593542  54.8907694  49.2463283  58.6413542  53.7817694
  49.8900700  58.6618376  53.0037739  48.3951115  59.1843339  53.7552425
  48.5323283  60.4883542  56.2827694  47.5083283  61.1763542  56.5137694
  49.4613283  60.8673542  55.5197694  34.4763283  38.8913542  42.9967694
  33.6883283  39.2743542  42.0377694  34.2163283  40.3033542  41.4827694
  32.5593283  39.6933542  42.5137694  33.4093283  38.1413542  41.0617694
  32.7123283  36.9313542  41.5047694  32.4823283  35.9043542  40.5697694
  32.9273283  36.0883542  39.2567694  32.7343283  35.3083542  38.5357694
  31.9743283  34.9963542  40.8597694  32.1903283  36.7823542  43.1957694
  33.8343283  38.2453542  39.7597694  34.3563283  39.1383542  39.4497694
  33.6143283  37.2393542  38.8297694  34.0993283  37.2873542  37.5257694
  33.6283283  36.7083542  36.8447694  35.1443283  38.0343542  37.0737694
  35.7693283  38.7563542  37.8167694  35.3833283  37.9033542  35.7557694
  34.6723283  37.4523542  35.1977694  36.5083283  38.3313542  35.1117694
  37.7223283  38.5053542  35.7277694  38.8393283  39.0553542  35.1167694
  39.7653283  39.1793542  35.6587694  37.8133283  38.1933542  36.7577694
  36.4183283  38.7293542  33.7927694  35.4903283  38.6183542  33.2517694
  37.5363283  39.2743542  33.1667694  37.4563283  39.5813542  32.1347694
  38.7343283  39.4353542  33.8117694  39.8563283  39.8603542  33.1197694
  40.1933283  41.1973542  33.0407694  41.5033283  41.3913542  32.5967694
  42.1363283  40.5523542  32.3507694  39.3363283  42.2733542  33.3077694
  38.3013283  42.1233542  33.5777694  39.8943283  43.5523542  33.2047694
  39.2883283  44.4113542  33.4537694  41.1663283  43.7443542  32.8037694
  41.9753283  42.7153542  32.4787694  43.3623283  42.9873542  32.0267694
  44.0883283  42.0353542  31.7917694  43.7623283  44.2643542  31.8797694
  43.1193283  45.0123542  32.0997694  45.0973283  44.5883542  31.4117694
  45.0833283  44.7153542  30.3287694  45.4323283  45.5143542  31.8797694
  45.7813283  43.7813542  31.6737694  36.3231900  60.4439910   2.7455590
  27.7310900  51.9725090  33.3371880  38.3294500  51.8526340  22.0019230
  71.8041090  80.2759280  80.5765290  70.9725970  80.0207990  80.9761800
  72.4122070  80.3470050  81.3123210  70.2133040  75.2361170  74.3607680
  69.3249740  75.5777140  74.2587560  70.4974230  75.0361490  73.4688510
  68.1766050  77.8366820  80.2447380  68.7482160  77.0689020  80.2451020
  68.1767590  78.1355580  79.3353990  72.3894430  73.8192670  75.3946060
  72.4961180  74.7196400  75.7014820  71.4786790  73.7710640  75.1040710
  70.0377590  75.7411680  80.6398650  70.7187700  76.0050050  81.2586050
  69.7225640  74.9012550  80.9736660  74.2302160  76.7879040  79.7271240
  74.7380380  77.2860010  80.3676260  74.7615400  76.0114240  79.5510600
  75.8781480  70.6269830  78.3249700  76.1856460  70.0716720  77.6085200
  74.9482180  70.7614290  78.1422690  73.8718880  79.2183400  77.8429550
  73.4675880  78.5060650  77.3475450  73.9582000  78.8736640  78.7317590
  70.5723510  78.1128380  75.3436200  70.4521110  78.8390470  74.7317470
  70.2624400  77.3431290  74.8664110  73.0387170  71.4563450  78.7259870
  72.5955320  72.2372990  78.3944390  73.5972160  71.7793340  79.4330810
  76.1545990  71.0774150  73.6065700  75.5300170  71.0734020  74.3319010
  76.0676110  70.2105110  73.2101670  75.0763070  72.0010780  80.5849470
  75.3735400  72.9073610  80.5041490  75.6248630  71.5129560  79.9709040
  72.8301390  76.5797020  76.4541120  72.6042310  76.3634190  77.3587740
  72.0493920  77.0125480  76.1087090  67.7028190  71.8124730  79.3065250
  67.4141240  72.3827590  80.0190230  68.4473950  71.3329180  79.6696480
  67.8898420  75.7544850  70.5167970  67.8073090  76.6975610  70.6582960
  67.5381480  75.6119760  69.6380320  75.6896550  74.4883880  79.5838320
  75.6932610  74.0473830  78.7342860  76.5847670  74.8101210  79.6910140
  71.5398930  74.3710370  78.5432530  71.1998980  74.8485600  79.2999580
  70.7776250  73.9175490  78.1833630  75.7516700  75.4895960  72.5745080
  75.8729520  75.4482440  73.5230900  75.3665210  76.3520110  72.4191810
  74.7638200  77.7997100  71.9728380  74.1955100  77.3515350  71.3464290
  75.4727200  78.1589880  71.4393530  68.8545010  73.2929350  77.4597200
  68.5691930  72.9285020  78.2975820  68.7923870  72.5609810  76.8460340
  68.3475670  78.4288300  71.4193900  69.2170520  78.7113100  71.7029820
  67.8565990  79.2424170  71.3042710  75.5110480  79.8161510  75.5402180
  75.9673260  80.6266760  75.7662370  75.1598690  79.4984650  76.3720670
  71.4122260  70.1599160  76.0124700  71.2836890  70.1517060  76.9609620
  70.5884280  70.4982250  75.6615710  70.3322180  80.2461770  73.5475960
  69.7250130  80.9860670  73.5571260  70.8071530  80.3361130  72.7214160
  75.2401030  75.6455480  75.4478290  74.5317180  76.1141820  75.8891900
  75.5245510  74.9877490  76.0823480  73.4436050  73.9540560  72.8229000
  74.2926580  74.3910710  72.7569190  73.0767320  74.2660820  73.6501060
  72.3427470  80.2072920  71.2964530  73.1090740  80.0954280  71.8589960
  72.4202160  79.5110890  70.6441300  71.0374230  77.6397990  71.9797420
  71.1177820  76.6925500  72.0914820  71.9293980  77.9704870  72.0858080
  74.3746500  80.2038050  73.2707170  74.7962920  80.0377920  74.1138560
  74.4997340  79.3938280  72.7762310  73.2705400  76.2771280  70.2165330
  73.0694460  75.4138640  70.5778670  73.0997450  76.1904640  69.2786930
  72.0688200  73.3771900  70.2043210  72.3714100  73.3839330  69.2962360
  72.8082790  73.0269760  70.7010870  75.2873130  72.3206520  71.1899410
  74.9395130  71.6430510  70.6101860  75.4885900  71.8596030  72.0042800
  68.6278770  78.8494170  77.5863780  67.9727610  78.5805810  76.9423480
  69.4656720  78.7398650  77.1365760  67.8416850  76.0593100  73.5289110
  66.9380930  76.3223300  73.3540770  68.3257470  76.3304270  72.7489070
  70.3844060  75.1158640  71.4383490  71.0935760  74.6941860  70.9530770
  69.6684000  75.1833870  70.8066840  70.0318220  71.1697970  70.4786140
  70.7546350  71.7106910  70.7967360  70.3042740  70.8961390  69.6027680
  69.7210410  70.4204160  80.3808760  70.3686600  69.8701540  79.9403920
  70.1412250  70.6747310  81.2024570  69.4565060  71.2091230  74.0721710
  70.2144420  71.3220110  73.4985740  68.9942230  72.0460430  74.0265140
  75.9978870  73.3230500  77.0624020  75.1853380  72.9487390  76.7219900
  76.5020510  72.5675580  77.3645210  71.8290210  71.7355280  72.6123680
  72.3582970  70.9485080  72.4831630  72.4618530  72.4146470  72.8459210
  74.0228050  71.4730420  75.6669070  73.3930790  70.7717730  75.8339200
  73.4833190  72.2334550  75.4502230  71.8041090  80.2759280  61.8021800
  70.9725970  80.0207990  62.2018310  72.4122070  80.3470050  62.5379720
  70.2133040  75.2361170  55.5864190  69.3249740  75.5777140  55.4844070
  70.4974230  75.0361490  54.6945020  68.1766050  77.8366820  61.4703890
  68.7482160  77.0689020  61.4707530  68.1767590  78.1355580  60.5610500
  69.4190920  73.2451180  63.2572820  69.2393760  72.3476930  63.5375580
  69.0171000  73.7923050  63.9319770  72.3894430  73.8192670  56.6202570
  72.4961180  74.7196400  56.9271330  71.4786790  73.7710640  56.3297220
  70.0377590  75.7411680  61.8655160  70.7187700  76.0050050  62.4842560
  69.7225640  74.9012550  62.1993170  74.2302160  76.7879040  60.9527750
  74.7380380  77.2860010  61.5932770  74.7615400  76.0114240  60.7767110
  72.5138260  71.4277600  65.2191170  72.5156700  71.9449990  64.4137070
  71.6842570  70.9507780  65.1961100  72.1953590  73.1387560  63.2261620
  72.5370400  73.9829610  62.9315490  71.2569400  73.2871300  63.3426960
  75.8781480  70.6269830  59.5506210  76.1856460  70.0716720  58.8341710
  74.9482180  70.7614290  59.3679200  73.8718880  79.2183400  59.0686060
  73.4675880  78.5060650  58.5731960  73.9582000  78.8736640  59.9574100
  72.5847500  75.9926610  62.8485100  73.1362090  76.1021950  62.0738350
  73.0991010  76.3664210  63.5640330  72.2590230  79.5145970  66.4590440
  72.1198000  80.3868770  66.8277840  71.3771590  79.1718780  66.3138380
  70.5723510  78.1128380  56.5692710  70.4521110  78.8390470  55.9573980
  70.2624400  77.3431290  56.0920620  73.0387170  71.4563450  59.9516380
  72.5955320  72.2372990  59.6200900  73.5972160  71.7793340  60.6587320
  76.1545990  71.0774150  54.8322210  75.5300170  71.0734020  55.5575520
  76.0676110  70.2105110  54.4358180  75.0763070  72.0010780  61.8105980
  75.3735400  72.9073610  61.7298000  75.6248630  71.5129560  61.1965550
  72.8301390  76.5797020  57.6797630  72.6042310  76.3634190  58.5844250
  72.0493920  77.0125480  57.3343600  75.2700600  77.4782600  68.3457900
  75.1744200  76.5377330  68.1958300  76.1132580  77.6997670  67.9505970
  70.4011140  73.8896270  66.4991680  70.0074530  74.7371480  66.7064460
  69.7129540  73.2522640  66.6900320  67.7028190  71.8124730  60.5321760
  67.4141240  72.3827590  61.2446740  68.4473950  71.3329180  60.8952990
  67.8898420  75.7544850  51.7424480  67.8073090  76.6975610  51.8839470
  67.5381480  75.6119760  50.8636830  75.6896550  74.4883880  60.8094830
  75.6932610  74.0473830  59.9599370  76.5847670  74.8101210  60.9166650
  71.5398930  74.3710370  59.7689040  71.1998980  74.8485600  60.5256090
  70.7776250  73.9175490  59.4090140  75.7516700  75.4895960  53.8001590
  75.8729520  75.4482440  54.7487410  75.3665210  76.3520110  53.6448320
  74.7638200  77.7997100  53.1984890  74.1955100  77.3515350  52.5720800
  75.4727200  78.1589880  52.6650040  75.9904520  78.5485660  62.5560240
  76.3574650  78.0744230  63.3021580  75.8009580  79.4227230  62.8968580
  68.8545010  73.2929350  58.6853710  68.5691930  72.9285020  59.5232330
  68.7923870  72.5609810  58.0716850  73.7803890  77.5894300  64.8744450
  73.4760960  78.4686280  65.0994810  74.7350350  77.6494090  64.9101890
  69.8367620  78.4297040  66.0215810  69.4782560  79.0950890  66.6089150
  69.5422180  77.5980590  66.3928430  73.0380740  78.8881280  68.9055360
  72.7380880  79.0338460  68.0083180  73.8091980  78.3286570  68.8128750
  68.3475670  78.4288300  52.6450410  69.2170520  78.7113100  52.9286330
  67.8565990  79.2424170  52.5299220  75.5110480  79.8161510  56.7658690
  75.9673260  80.6266760  56.9918880  75.1598690  79.4984650  57.5977180
  71.4122260  70.1599160  57.2381210  71.2836890  70.1517060  58.1866130
  70.5884280  70.4982250  56.8872220  68.4116190  71.9190280  66.6987910
  67.6974710  72.1187200  67.3040520  68.8311230  71.1429850  67.0702710
  70.3322180  80.2461770  54.7732470  69.7250130  80.9860670  54.7827770
  70.8071530  80.3361130  53.9470670  75.2401030  75.6455480  56.6734800
  74.5317180  76.1141820  57.1148410  75.5245510  74.9877490  57.3079990
  73.4436050  73.9540560  54.0485510  74.2926580  74.3910710  53.9825700
  73.0767320  74.2660820  54.8757570  72.3427470  80.2072920  52.5221040
  73.1090740  80.0954280  53.0846470  72.4202160  79.5110890  51.8697810
  71.0374230  77.6397990  53.2053930  71.1177820  76.6925500  53.3171330
  71.9293980  77.9704870  53.3114590  68.5645030  79.4612910  68.4410100
  69.0684050  78.8820190  69.0126330  67.8252450  79.7453140  68.9786470
  70.5968110  77.6042500  69.3360170  70.6373450  77.3056370  70.2445400
  71.4513610  78.0050110  69.1767690  74.3746500  80.2038050  54.4963680
  74.7962920  80.0377920  55.3395070  74.4997340  79.3938280  54.0018820
  72.5373920  76.1834600  67.3034660  72.0070380  75.6925550  66.6758000
  73.2061990  76.6118800  66.7692590  73.0246220  73.1496970  67.3831950
  72.9303090  72.5317720  66.6582820  72.4443610  73.8763260  67.1561860
  75.7907660  71.7070210  64.4159340  75.3424960  71.7294470  63.5704890
  75.1572860  71.3089230  65.0129640  73.2705400  76.2771280  51.4421840
  73.0694460  75.4138640  51.8035180  73.0997450  76.1904640  50.5043440
  75.2999880  74.8762070  67.6785440  75.8899570  74.5677920  68.3663260
  74.4820120  74.4041820  67.8345340  72.0688200  73.3771900  51.4299720
  72.3714100  73.3839330  50.5218870  72.8082790  73.0269760  51.9267380
  75.2873130  72.3206520  52.4155920  74.9395130  71.6430510  51.8358370
  75.4885900  71.8596030  53.2299310  68.6278770  78.8494170  58.8120290
  67.9727610  78.5805810  58.1679990  69.4656720  78.7398650  58.3622270
  69.6654700  79.2346740  63.3523630  70.0327740  79.1474140  64.2319650
  69.0965520  78.4713290  63.2530490  69.2170700  76.1455830  67.2582050
  68.3226750  76.1122590  67.5975760  69.7568250  76.3442620  68.0233300
  67.8416850  76.0593100  54.7545620  66.9380930  76.3223300  54.5797280
  68.3257470  76.3304270  53.9745580  70.3844060  75.1158640  52.6640000
  71.0935760  74.6941860  52.1787280  69.6684000  75.1833870  52.0323350
  70.0318220  71.1697970  51.7042650  70.7546350  71.7106910  52.0223870
  70.3042740  70.8961390  50.8284190  69.7210410  70.4204160  61.6065270
  70.3686600  69.8701540  61.1660430  70.1412250  70.6747310  62.4281080
  69.4742410  70.5759830  64.3490590  69.1257230  71.0323650  65.1148770
  69.1430110  69.6816960  64.4313020  70.1463050  70.1036030  67.6241360
  70.6946040  69.9224080  66.8607470  70.2118360  69.3130140  68.1597670
  69.4565060  71.2091230  55.2978220  70.2144420  71.3220110  54.7242250
  68.9942230  72.0460430  55.2521650  75.9978870  73.3230500  58.2880530
  75.1853380  72.9487390  57.9476410  76.5020510  72.5675580  58.5901720
  71.8290210  71.7355280  53.8380190  72.3582970  70.9485080  53.7088140
  72.4618530  72.4146470  54.0715720  74.0228050  71.4730420  56.8925580
  73.3930790  70.7717730  57.0595710  73.4833190  72.2334550  56.6758740
  74.1483610  70.7514400  69.3278070  73.8667880  71.2548000  68.5638890
  74.5303310  69.9536150  68.9620200  71.8041090  80.2759280  43.0278310
  70.9725970  80.0207990  43.4274820  72.4122070  80.3470050  43.7636230
  70.2133040  75.2361170  36.8120700  69.3249740  75.5777140  36.7100580
  70.4974230  75.0361490  35.9201530  68.1766050  77.8366820  42.6960400
  68.7482160  77.0689020  42.6964040  68.1767590  78.1355580  41.7867010
  69.4190920  73.2451180  44.4829330  69.2393760  72.3476930  44.7632090
  69.0171000  73.7923050  45.1576280  72.3894430  73.8192670  37.8459080
  72.4961180  74.7196400  38.1527840  71.4786790  73.7710640  37.5553730
  70.0377590  75.7411680  43.0911670  70.7187700  76.0050050  43.7099070
  69.7225640  74.9012550  43.4249680  74.2302160  76.7879040  42.1784260
  74.7380380  77.2860010  42.8189280  74.7615400  76.0114240  42.0023620
  72.5138260  71.4277600  46.4447680  72.5156700  71.9449990  45.6393580
  71.6842570  70.9507780  46.4217610  72.1953590  73.1387560  44.4518130
  72.5370400  73.9829610  44.1572000  71.2569400  73.2871300  44.5683470
  75.8781480  70.6269830  40.7762720  76.1856460  70.0716720  40.0598220
  74.9482180  70.7614290  40.5935710  73.8718880  79.2183400  40.2942570
  73.4675880  78.5060650  39.7988470  73.9582000  78.8736640  41.1830610
  72.5847500  75.9926610  44.0741610  73.1362090  76.1021950  43.2994860
  73.0991010  76.3664210  44.7896840  72.2590230  79.5145970  47.6846950
  72.1198000  80.3868770  48.0534350  71.3771590  79.1718780  47.5394890
  70.5723510  78.1128380  37.7949220  70.4521110  78.8390470  37.1830490
  70.2624400  77.3431290  37.3177130  73.0387170  71.4563450  41.1772890
  72.5955320  72.2372990  40.8457410  73.5972160  71.7793340  41.8843830
  76.1545990  71.0774150  36.0578720  75.5300170  71.0734020  36.7832030
  76.0676110  70.2105110  35.6614690  75.0763070  72.0010780  43.0362490
  75.3735400  72.9073610  42.9554510  75.6248630  71.5129560  42.4222060
  72.8301390  76.5797020  38.9054140  72.6042310  76.3634190  39.8100760
  72.0493920  77.0125480  38.5600110  75.2700600  77.4782600  49.5714410
  75.1744200  76.5377330  49.4214810  76.1132580  77.6997670  49.1762480
  70.4011140  73.8896270  47.7248190  70.0074530  74.7371480  47.9320970
  69.7129540  73.2522640  47.9156830  67.7028190  71.8124730  41.7578270
  67.4141240  72.3827590  42.4703250  68.4473950  71.3329180  42.1209500
  67.8898420  75.7544850  32.9680990  67.8073090  76.6975610  33.1095980
  67.5381480  75.6119760  32.0893340  75.6896550  74.4883880  42.0351340
  75.6932610  74.0473830  41.1855880  76.5847670  74.8101210  42.1423160
  71.5398930  74.3710370  40.9945550  71.1998980  74.8485600  41.7512600
  70.7776250  73.9175490  40.6346650  75.7516700  75.4895960  35.0258100
  75.8729520  75.4482440  35.9743920  75.3665210  76.3520110  34.8704830
  74.7638200  77.7997100  34.4241400  74.1955100  77.3515350  33.7977310
  75.4727200  78.1589880  33.8906550  75.9904520  78.5485660  43.7816750
  76.3574650  78.0744230  44.5278090  75.8009580  79.4227230  44.1225090
  68.8545010  73.2929350  39.9110220  68.5691930  72.9285020  40.7488840
  68.7923870  72.5609810  39.2973360  73.7803890  77.5894300  46.1000960
  73.4760960  78.4686280  46.3251320  74.7350350  77.6494090  46.1358400
  69.8367620  78.4297040  47.2472320  69.4782560  79.0950890  47.8345660
  69.5422180  77.5980590  47.6184940  73.0380740  78.8881280  50.1311870
  72.7380880  79.0338460  49.2339690  73.8091980  78.3286570  50.0385260
  68.3475670  78.4288300  33.8706920  69.2170520  78.7113100  34.1542840
  67.8565990  79.2424170  33.7555730  75.5110480  79.8161510  37.9915200
  75.9673260  80.6266760  38.2175390  75.1598690  79.4984650  38.8233690
  71.4122260  70.1599160  38.4637720  71.2836890  70.1517060  39.4122640
  70.5884280  70.4982250  38.1128730  68.4116190  71.9190280  47.9244420
  67.6974710  72.1187200  48.5297030  68.8311230  71.1429850  48.2959220
  70.3322180  80.2461770  35.9988980  69.7250130  80.9860670  36.0084280
  70.8071530  80.3361130  35.1727180  75.2401030  75.6455480  37.8991310
  74.5317180  76.1141820  38.3404920  75.5245510  74.9877490  38.5336500
  73.4436050  73.9540560  35.2742020  74.2926580  74.3910710  35.2082210
  73.0767320  74.2660820  36.1014080  72.3427470  80.2072920  33.7477550
  73.1090740  80.0954280  34.3102980  72.4202160  79.5110890  33.0954320
  71.0374230  77.6397990  34.4310440  71.1177820  76.6925500  34.5427840
  71.9293980  77.9704870  34.5371100  68.5645030  79.4612910  49.6666610
  69.0684050  78.8820190  50.2382840  67.8252450  79.7453140  50.2042980
  70.5968110  77.6042500  50.5616680  70.6373450  77.3056370  51.4701910
  71.4513610  78.0050110  50.4024200  74.3746500  80.2038050  35.7220190
  74.7962920  80.0377920  36.5651580  74.4997340  79.3938280  35.2275330
  72.5373920  76.1834600  48.5291170  72.0070380  75.6925550  47.9014510
  73.2061990  76.6118800  47.9949100  73.0246220  73.1496970  48.6088460
  72.9303090  72.5317720  47.8839330  72.4443610  73.8763260  48.3818370
  75.7907660  71.7070210  45.6415850  75.3424960  71.7294470  44.7961400
  75.1572860  71.3089230  46.2386150  73.2705400  76.2771280  32.6678350
  73.0694460  75.4138640  33.0291690  73.0997450  76.1904640  31.7299950
  75.2999880  74.8762070  48.9041950  75.8899570  74.5677920  49.5919770
  74.4820120  74.4041820  49.0601850  72.0688200  73.3771900  32.6556230
  72.3714100  73.3839330  31.7475380  72.8082790  73.0269760  33.1523890
  75.2873130  72.3206520  33.6412430  74.9395130  71.6430510  33.0614880
  75.4885900  71.8596030  34.4555820  68.6278770  78.8494170  40.0376800
  67.9727610  78.5805810  39.3936500  69.4656720  78.7398650  39.5878780
  69.6654700  79.2346740  44.5780140  70.0327740  79.1474140  45.4576160
  69.0965520  78.4713290  44.4787000  69.2170700  76.1455830  48.4838560
  68.3226750  76.1122590  48.8232270  69.7568250  76.3442620  49.2489810
  67.8416850  76.0593100  35.9802130  66.9380930  76.3223300  35.8053790
  68.3257470  76.3304270  35.2002090  70.3844060  75.1158640  33.8896510
  71.0935760  74.6941860  33.4043790  69.6684000  75.1833870  33.2579860
  70.0318220  71.1697970  32.9299160  70.7546350  71.7106910  33.2480380
  70.3042740  70.8961390  32.0540700  69.7210410  70.4204160  42.8321780
  70.3686600  69.8701540  42.3916940  70.1412250  70.6747310  43.6537590
  69.4742410  70.5759830  45.5747100  69.1257230  71.0323650  46.3405280
  69.1430110  69.6816960  45.6569530  70.1463050  70.1036030  48.8497870
  70.6946040  69.9224080  48.0863980  70.2118360  69.3130140  49.3854180
  69.4565060  71.2091230  36.5234730  70.2144420  71.3220110  35.9498760
  68.9942230  72.0460430  36.4778160  75.9978870  73.3230500  39.5137040
  75.1853380  72.9487390  39.1732920  76.5020510  72.5675580  39.8158230
  71.8290210  71.7355280  35.0636700  72.3582970  70.9485080  34.9344650
  72.4618530  72.4146470  35.2972230  74.0228050  71.4730420  38.1182090
  73.3930790  70.7717730  38.2852220  73.4833190  72.2334550  37.9015250
  74.1483610  70.7514400  50.5534580  73.8667880  71.2548000  49.7895400
  74.5303310  69.9536150  50.1876710  71.8041090  80.2759280  24.2534820
  70.9725970  80.0207990  24.6531330  72.4122070  80.3470050  24.9892740
  70.2133040  75.2361170  18.0377210  69.3249740  75.5777140  17.9357090
  70.4974230  75.0361490  17.1458040  68.1766050  77.8366820  23.9216910
  68.7482160  77.0689020  23.9220550  68.1767590  78.1355580  23.0123520
  69.4190920  73.2451180  25.7085840  69.2393760  72.3476930  25.9888600
  69.0171000  73.7923050  26.3832790  72.3894430  73.8192670  19.0715590
  72.4961180  74.7196400  19.3784350  71.4786790  73.7710640  18.7810240
  70.0377590  75.7411680  24.3168180  70.7187700  76.0050050  24.9355580
  69.7225640  74.9012550  24.6506190  74.2302160  76.7879040  23.4040770
  74.7380380  77.2860010  24.0445790  74.7615400  76.0114240  23.2280130
  72.5138260  71.4277600  27.6704190  72.5156700  71.9449990  26.8650090
  71.6842570  70.9507780  27.6474120  72.1953590  73.1387560  25.6774640
  72.5370400  73.9829610  25.3828510  71.2569400  73.2871300  25.7939980
  75.8781480  70.6269830  22.0019230  76.1856460  70.0716720  21.2854730
  74.9482180  70.7614290  21.8192220  73.8718880  79.2183400  21.5199080
  73.4675880  78.5060650  21.0244980  73.9582000  78.8736640  22.4087120
  72.5847500  75.9926610  25.2998120  73.1362090  76.1021950  24.5251370
  73.0991010  76.3664210  26.0153350  72.2590230  79.5145970  28.9103460
  72.1198000  80.3868770  29.2790860  71.3771590  79.1718780  28.7651400
  70.5723510  78.1128380  19.0205730  70.4521110  78.8390470  18.4087000
  70.2624400  77.3431290  18.5433640  73.0387170  71.4563450  22.4029400
  72.5955320  72.2372990  22.0713920  73.5972160  71.7793340  23.1100340
  76.1545990  71.0774150  17.2835230  75.5300170  71.0734020  18.0088540
  76.0676110  70.2105110  16.8871200  75.0763070  72.0010780  24.2619000
  75.3735400  72.9073610  24.1811020  75.6248630  71.5129560  23.6478570
  72.8301390  76.5797020  20.1310650  72.6042310  76.3634190  21.0357270
  72.0493920  77.0125480  19.7856620  75.2700600  77.4782600  30.7970920
  75.1744200  76.5377330  30.6471320  76.1132580  77.6997670  30.4018990
  70.4011140  73.8896270  28.9504700  70.0074530  74.7371480  29.1577480
  69.7129540  73.2522640  29.1413340  67.7028190  71.8124730  22.9834780
  67.4141240  72.3827590  23.6959760  68.4473950  71.3329180  23.3466010
  67.8898420  75.7544850  14.1937500  67.8073090  76.6975610  14.3352490
  67.5381480  75.6119760  13.3149850  75.6896550  74.4883880  23.2607850
  75.6932610  74.0473830  22.4112390  76.5847670  74.8101210  23.3679670
  71.5398930  74.3710370  22.2202060  71.1998980  74.8485600  22.9769110
  70.7776250  73.9175490  21.8603160  75.7516700  75.4895960  16.2514610
  75.8729520  75.4482440  17.2000430  75.3665210  76.3520110  16.0961340
  74.7638200  77.7997100  15.6497910  74.1955100  77.3515350  15.0233820
  75.4727200  78.1589880  15.1163060  75.9904520  78.5485660  25.0073260
  76.3574650  78.0744230  25.7534600  75.8009580  79.4227230  25.3481600
  68.8545010  73.2929350  21.1366730  68.5691930  72.9285020  21.9745350
  68.7923870  72.5609810  20.5229870  73.7803890  77.5894300  27.3257470
  73.4760960  78.4686280  27.5507830  74.7350350  77.6494090  27.3614910
  69.8367620  78.4297040  28.4728830  69.4782560  79.0950890  29.0602170
  69.5422180  77.5980590  28.8441450  73.0380740  78.8881280  31.3568380
  72.7380880  79.0338460  30.4596200  73.8091980  78.3286570  31.2641770
  68.3475670  78.4288300  15.0963430  69.2170520  78.7113100  15.3799350
  67.8565990  79.2424170  14.9812240  75.5110480  79.8161510  19.2171710
  75.9673260  80.6266760  19.4431900  75.1598690  79.4984650  20.0490200
  71.4122260  70.1599160  19.6894230  71.2836890  70.1517060  20.6379150
  70.5884280  70.4982250  19.3385240  68.4116190  71.9190280  29.1500930
  67.6974710  72.1187200  29.7553540  68.8311230  71.1429850  29.5215730
  70.3322180  80.2461770  17.2245490  69.7250130  80.9860670  17.2340790
  70.8071530  80.3361130  16.3983690  75.2401030  75.6455480  19.1247820
  74.5317180  76.1141820  19.5661430  75.5245510  74.9877490  19.7593010
  73.4436050  73.9540560  16.4998530  74.2926580  74.3910710  16.4338720
  73.0767320  74.2660820  17.3270590  72.3427470  80.2072920  14.9734060
  73.1090740  80.0954280  15.5359490  72.4202160  79.5110890  14.3210830
  71.0374230  77.6397990  15.6566950  71.1177820  76.6925500  15.7684350
  71.9293980  77.9704870  15.7627610  68.5645030  79.4612910  30.8923120
  69.0684050  78.8820190  31.4639350  67.8252450  79.7453140  31.4299490
  70.5968110  77.6042500  31.7873190  70.6373450  77.3056370  32.6958420
  71.4513610  78.0050110  31.6280710  74.3746500  80.2038050  16.9476700
  74.7962920  80.0377920  17.7908090  74.4997340  79.3938280  16.4531840
  72.5373920  76.1834600  29.7547680  72.0070380  75.6925550  29.1271020
  73.2061990  76.6118800  29.2205610  73.0246220  73.1496970  29.8344970
  72.9303090  72.5317720  29.1095840  72.4443610  73.8763260  29.6074880
  75.7907660  71.7070210  26.8672360  75.3424960  71.7294470  26.0217910
  75.1572860  71.3089230  27.4642660  73.2705400  76.2771280  13.8934860
  73.0694460  75.4138640  14.2548200  73.0997450  76.1904640  12.9556460
  75.2999880  74.8762070  30.1298460  75.8899570  74.5677920  30.8176280
  74.4820120  74.4041820  30.2858360  72.0688200  73.3771900  13.8812740
  72.3714100  73.3839330  12.9731890  72.8082790  73.0269760  14.3780400
  75.2873130  72.3206520  14.8668940  74.9395130  71.6430510  14.2871390
  75.4885900  71.8596030  15.6812330  68.6278770  78.8494170  21.2633310
  67.9727610  78.5805810  20.6193010  69.4656720  78.7398650  20.8135290
  69.6654700  79.2346740  25.8036650  70.0327740  79.1474140  26.6832670
  69.0965520  78.4713290  25.7043510  69.2170700  76.1455830  29.7095070
  68.3226750  76.1122590  30.0488780  69.7568250  76.3442620  30.4746320
  67.8416850  76.0593100  17.2058640  66.9380930  76.3223300  17.0310300
  68.3257470  76.3304270  16.4258600  70.3844060  75.1158640  15.1153020
  71.0935760  74.6941860  14.6300300  69.6684000  75.1833870  14.4836370
  70.0318220  71.1697970  14.1555670  70.7546350  71.7106910  14.4736890
  70.3042740  70.8961390  13.2797210  69.7210410  70.4204160  24.0578290
  70.3686600  69.8701540  23.6173450  70.1412250  70.6747310  24.8794100
  69.4742410  70.5759830  26.8003610  69.1257230  71.0323650  27.5661790
  69.1430110  69.6816960  26.8826040  70.1463050  70.1036030  30.0754380
  70.6946040  69.9224080  29.3120490  70.2118360  69.3130140  30.6110690
  69.4565060  71.2091230  17.7491240  70.2144420  71.3220110  17.1755270
  68.9942230  72.0460430  17.7034670  75.9978870  73.3230500  20.7393550
  75.1853380  72.9487390  20.3989430  76.5020510  72.5675580  21.0414740
  71.8290210  71.7355280  16.2893210  72.3582970  70.9485080  16.1601160
  72.4618530  72.4146470  16.5228740  74.0228050  71.4730420  19.3438600
  73.3930790  70.7717730  19.5108730  73.4833190  72.2334550  19.1271760
  74.1483610  70.7514400  31.7791090  73.8667880  71.2548000  31.0151910
  74.5303310  69.9536150  31.4133220  71.8041090  80.2759280   5.4791330
  70.9725970  80.0207990   5.8787840  72.4122070  80.3470050   6.2149250
  68.1766050  77.8366820   5.1473420  68.7482160  77.0689020   5.1477060
  68.1767590  78.1355580   4.2380030  69.4190920  73.2451180   6.9342350
  69.2393760  72.3476930   7.2145110  69.0171000  73.7923050   7.6089300
  70.0377590  75.7411680   5.5424690  70.7187700  76.0050050   6.1612090
  69.7225640  74.9012550   5.8762700  74.2302160  76.7879040   4.6297280
  74.7380380  77.2860010   5.2702300  74.7615400  76.0114240   4.4536640
  72.5138260  71.4277600   8.8960700  72.5156700  71.9449990   8.0906600
  71.6842570  70.9507780   8.8730630  72.1953590  73.1387560   6.9031150
  72.5370400  73.9829610   6.6085020  71.2569400  73.2871300   7.0196490
  75.8781480  70.6269830   3.2275740  76.1856460  70.0716720   2.5111240
  74.9482180  70.7614290   3.0448730  73.8718880  79.2183400   2.7455590
  73.4675880  78.5060650   2.2501490  73.9582000  78.8736640   3.6343630
  72.5847500  75.9926610   6.5254630  73.1362090  76.1021950   5.7507880
  73.0991010  76.3664210   7.2409860  72.2590230  79.5145970  10.1359970
  72.1198000  80.3868770  10.5047370  71.3771590  79.1718780   9.9907910
  73.0387170  71.4563450   3.6285910  72.5955320  72.2372990   3.2970430
  73.5972160  71.7793340   4.3356850  75.0763070  72.0010780   5.4875510
  75.3735400  72.9073610   5.4067530  75.6248630  71.5129560   4.8735080
  75.2700600  77.4782600  12.0227430  75.1744200  76.5377330  11.8727830
  76.1132580  77.6997670  11.6275500  70.4011140  73.8896270  10.1761210
  70.0074530  74.7371480  10.3833990  69.7129540  73.2522640  10.3669850
  67.7028190  71.8124730   4.2091290  67.4141240  72.3827590   4.9216270
  68.4473950  71.3329180   4.5722520  75.6896550  74.4883880   4.4864360
  75.6932610  74.0473830   3.6368900  76.5847670  74.8101210   4.5936180
  71.5398930  74.3710370   3.4458570  71.1998980  74.8485600   4.2025620
  70.7776250  73.9175490   3.0859670  75.9904520  78.5485660   6.2329770
  76.3574650  78.0744230   6.9791110  75.8009580  79.4227230   6.5738110
  68.8545010  73.2929350   2.3623240  68.5691930  72.9285020   3.2001860
  68.7923870  72.5609810   1.7486380  73.7803890  77.5894300   8.5513980
  73.4760960  78.4686280   8.7764340  74.7350350  77.6494090   8.5871420
  69.8367620  78.4297040   9.6985340  69.4782560  79.0950890  10.2858680
  69.5422180  77.5980590  10.0697960  73.0380740  78.8881280  12.5824890
  72.7380880  79.0338460  11.6852710  73.8091980  78.3286570  12.4898280
  68.4116190  71.9190280  10.3757440  67.6974710  72.1187200  10.9810050
  68.8311230  71.1429850  10.7472240  68.5645030  79.4612910  12.1179630
  69.0684050  78.8820190  12.6895860  67.8252450  79.7453140  12.6556000
  70.5968110  77.6042500  13.0129700  70.6373450  77.3056370  13.9214930
  71.4513610  78.0050110  12.8537220  72.5373920  76.1834600  10.9804190
  72.0070380  75.6925550  10.3527530  73.2061990  76.6118800  10.4462120
  73.0246220  73.1496970  11.0601480  72.9303090  72.5317720  10.3352350
  72.4443610  73.8763260  10.8331390  75.7907660  71.7070210   8.0928870
  75.3424960  71.7294470   7.2474420  75.1572860  71.3089230   8.6899170
  75.2999880  74.8762070  11.3554970  75.8899570  74.5677920  12.0432790
  74.4820120  74.4041820  11.5114870  68.6278770  78.8494170   2.4889820
  67.9727610  78.5805810   1.8449520  69.4656720  78.7398650   2.0391800
  69.6654700  79.2346740   7.0293160  70.0327740  79.1474140   7.9089180
  69.0965520  78.4713290   6.9300020  69.2170700  76.1455830  10.9351580
  68.3226750  76.1122590  11.2745290  69.7568250  76.3442620  11.7002830
  69.7210410  70.4204160   5.2834800  70.3686600  69.8701540   4.8429960
  70.1412250  70.6747310   6.1050610  69.4742410  70.5759830   8.0260120
  69.1257230  71.0323650   8.7918300  69.1430110  69.6816960   8.1082550
  70.1463050  70.1036030  11.3010890  70.6946040  69.9224080  10.5377000
  70.2118360  69.3130140  11.8367200  74.1483610  70.7514400  13.0047600
  73.8667880  71.2548000  12.2408420  74.5303310  69.9536150  12.6389730
  71.8041090  61.5015790  80.5765290  70.9725970  61.2464500  80.9761800
  72.4122070  61.5726560  81.3123210  71.7842350  65.5355880  80.7723310
  72.0870390  64.6453620  80.5933530  72.5285940  66.0926100  80.5445560
  70.2133040  56.4617680  74.3607680  69.3249740  56.8033650  74.2587560
  70.4974230  56.2618000  73.4688510  68.1766050  59.0623330  80.2447380
  68.7482160  58.2945530  80.2451020  68.1767590  59.3612090  79.3353990
  72.3894430  55.0449180  75.3946060  72.4961180  55.9452910  75.7014820
  71.4786790  54.9967150  75.1040710  70.0377590  56.9668190  80.6398650
  70.7187700  57.2306560  81.2586050  69.7225640  56.1269060  80.9736660
  74.2302160  58.0135550  79.7271240  74.7380380  58.5116520  80.3676260
  74.7615400  57.2370750  79.5510600  68.2692550  63.4509950  72.8664190
  67.8920530  63.9397050  72.1349090  68.5265620  64.1235230  73.4970720
  75.8781480  51.8526340  78.3249700  76.1856460  51.2973230  77.6085200
  74.9482180  51.9870800  78.1422690  73.8718880  60.4439910  77.8429550
  73.4675880  59.7317160  77.3475450  73.9582000  60.0993150  78.7317590
  74.3400580  64.1307470  80.0068760  74.0428870  63.5252940  79.3276540
  75.2900400  64.1684780  79.8958120  70.5723510  59.3384890  75.3436200
  70.4521110  60.0646980  74.7317470  70.2624400  58.5687800  74.8664110
  68.2108880  62.5100030  81.1504840  68.2889300  62.6448800  80.2060560
  68.8250560  61.8015920  81.3432960  69.4556510  64.2100220  77.5611020
  69.0484590  64.3514810  76.7064620  70.3469520  63.9260380  77.3582230
  73.7278170  68.4246000  75.6733690  73.5520650  67.5081540  75.4601490
  72.8733910  68.7833290  75.9131490  73.0387170  52.6819960  78.7259870
  72.5955320  53.4629500  78.3944390  73.5972160  53.0049850  79.4330810
  76.1545990  52.3030660  73.6065700  75.5300170  52.2990530  74.3319010
  76.0676110  51.4361620  73.2101670  75.0763070  53.2267290  80.5849470
  75.3735400  54.1330120  80.5041490  75.6248630  52.7386070  79.9709040
  72.8301390  57.8053530  76.4541120  72.6042310  57.5890700  77.3587740
  72.0493920  58.2381990  76.1087090  67.7028190  53.0381240  79.3065250
  67.4141240  53.6084100  80.0190230  68.4473950  52.5585690  79.6696480
  67.8898420  56.9801360  70.5167970  67.8073090  57.9232120  70.6582960
  67.5381480  56.8376270  69.6380320  75.6896550  55.7140390  79.5838320
  75.6932610  55.2730340  78.7342860  76.5847670  56.0357720  79.6910140
  71.5398930  55.5966880  78.5432530  71.1998980  56.0742110  79.2999580
  70.7776250  55.1432000  78.1833630  75.7516700  56.7152470  72.5745080
  75.8729520  56.6738950  73.5230900  75.3665210  57.5776620  72.4191810
  74.7638200  59.0253610  71.9728380  74.1955100  58.5771860  71.3464290
  75.4727200  59.3846390  71.4393530  68.8545010  54.5185860  77.4597200
  68.5691930  54.1541530  78.2975820  68.7923870  53.7866320  76.8460340
  72.3085680  63.0211800  74.2454790  71.5347940  62.4809420  74.0853510
  73.0380310  62.5018410  73.9072550  72.3523080  62.6892180  77.8833600
  72.8701750  61.8860440  77.8290490  71.9007100  62.6271320  78.7250430
  76.2083270  64.0371990  75.9276820  76.8954400  64.5841200  76.3084410
  75.4215690  64.5812720  75.9626430  68.3475670  59.6544810  71.4193900
  69.2170520  59.9369610  71.7029820  67.8565990  60.4680680  71.3042710
  75.5110480  61.0418020  75.5402180  75.9673260  61.8523270  75.7662370
  75.1598690  60.7241160  76.3720670  71.4122260  51.3855670  76.0124700
  71.2836890  51.3773570  76.9609620  70.5884280  51.7238760  75.6615710
  68.7146920  68.8672190  71.9855530  69.0744560  69.4661530  71.3312800
  68.5739260  69.4132080  72.7590560  74.7315540  66.2503390  72.8029200
  74.7225640  66.9833080  72.1873710  73.8113900  66.0034970  72.8956160
  70.3322180  61.4718280  73.5475960  69.7250130  62.2117180  73.5571260
  70.8071530  61.5617640  72.7214160  75.2401030  56.8711990  75.4478290
  74.5317180  57.3398330  75.8891900  75.5245510  56.2134000  76.0823480
  76.3593250  68.8317950  76.1602060  76.6134750  68.7939340  75.2381430
  75.4105730  68.7051280  76.1530310  73.4436050  55.1797070  72.8229000
  74.2926580  55.6167220  72.7569190  73.0767320  55.4917330  73.6501060
  72.3427470  61.4329430  71.2964530  73.1090740  61.3210790  71.8589960
  72.4202160  60.7367400  70.6441300  71.0374230  58.8654500  71.9797420
  71.1177820  57.9182010  72.0914820  71.9293980  59.1961380  72.0858080
  71.8388940  69.0149890  79.0831960  72.5751420  68.4665350  79.3540530
  72.2229860  69.8805900  78.9437950  68.7234420  65.0823460  74.9573470
  67.7974200  65.3244600  74.9478880  69.1890850  65.9097720  74.8358220
  74.9491250  68.1880200  70.9057530  75.7419860  68.4769030  70.4539320
  74.4295600  67.7572370  70.2270010  75.4668650  63.4083610  70.7699880
  75.3619290  62.7935960  71.4961260  75.2992870  62.8849500  69.9862890
  74.3746500  61.4294560  73.2707170  74.7962920  61.2634430  74.1138560
  74.4997340  60.6194790  72.7762310  73.2705400  57.5027790  70.2165330
  73.0694460  56.6395150  70.5778670  73.0997450  57.4161150  69.2786930
  72.0688200  54.6028410  70.2043210  72.3714100  54.6095840  69.2962360
  72.8082790  54.2526270  70.7010870  75.2873130  53.5463030  71.1899410
  74.9395130  52.8687020  70.6101860  75.4885900  53.0852540  72.0042800
  71.0918330  63.9070830  71.0373010  71.5293200  64.4500500  71.6930590
  71.5766060  63.0817780  71.0469350  68.3064130  66.6959860  78.4893270
  68.6367140  65.8280920  78.2571910  68.7355130  66.9018380  79.3198230
  72.9026050  65.0268870  76.1495240  72.6021590  64.9033840  77.0499150
  72.7963540  64.1677460  75.7410970  68.6278770  60.0750680  77.5863780
  67.9727610  59.8062320  76.9423480  69.4656720  59.9655160  77.1365760
  67.8416850  57.2849610  73.5289110  66.9380930  57.5479810  73.3540770
  68.3257470  57.5560780  72.7489070  70.3844060  56.3415150  71.4383490
  71.0935760  55.9198370  70.9530770  69.6684000  56.4090380  70.8066840
  70.0318220  52.3954480  70.4786140  70.7546350  52.9363420  70.7967360
  70.3042740  52.1217900  69.6027680  69.7210410  51.6460670  80.3808760
  70.3686600  51.0958050  79.9403920  70.1412250  51.9003820  81.2024570
  74.1552140  67.5001570  80.1442500  74.6717160  66.8888930  79.6190760
  74.8049520  68.0030350  80.6353510  68.8337040  68.6030960  76.5689850
  68.6659080  67.9701640  77.2671740  67.9671550  68.8090360  76.2184040
  69.4565060  52.4347740  74.0721710  70.2144420  52.5476620  73.4985740
  68.9942230  53.2716940  74.0265140  75.9978870  54.5487010  77.0624020
  75.1853380  54.1743900  76.7219900  76.5020510  53.7932090  77.3645210
  70.4399740  67.2964190  74.0139990  69.9147360  67.6772220  73.3101950
  70.3644320  67.9214960  74.7349700  71.8290210  52.9611790  72.6123680
  72.3582970  52.1741590  72.4831630  72.4618530  53.6402980  72.8459210
  74.0228050  52.6986930  75.6669070  73.3930790  51.9974240  75.8339200
  73.4833190  53.4591060  75.4502230  73.0392710  69.2446570  72.8889240
  73.7711530  68.9605850  72.3413130  73.2986380  69.0059850  73.7788620
  72.2007500  65.3611300  72.8935570  71.5716380  65.8296400  73.4421400
  72.3155330  64.5160520  73.3281760  71.8041090  61.5015790  61.8021800
  70.9725970  61.2464500  62.2018310  72.4122070  61.5726560  62.5379720
  71.7842350  65.5355880  61.9979820  72.0870390  64.6453620  61.8190040
  72.5285940  66.0926100  61.7702070  70.2133040  56.4617680  55.5864190
  69.3249740  56.8033650  55.4844070  70.4974230  56.2618000  54.6945020
  68.1766050  59.0623330  61.4703890  68.7482160  58.2945530  61.4707530
  68.1767590  59.3612090  60.5610500  69.4190920  54.4707690  63.2572820
  69.2393760  53.5733440  63.5375580  69.0171000  55.0179560  63.9319770
  72.3894430  55.0449180  56.6202570  72.4961180  55.9452910  56.9271330
  71.4786790  54.9967150  56.3297220  70.0377590  56.9668190  61.8655160
  70.7187700  57.2306560  62.4842560  69.7225640  56.1269060  62.1993170
  74.2302160  58.0135550  60.9527750  74.7380380  58.5116520  61.5932770
  74.7615400  57.2370750  60.7767110  72.5138260  52.6534110  65.2191170
  72.5156700  53.1706500  64.4137070  71.6842570  52.1764290  65.1961100
  73.7641110  62.2929290  63.3964670  73.4310490  62.9198210  64.0385740
  73.9407790  62.8191170  62.6166340  72.1953590  54.3644070  63.2261620
  72.5370400  55.2086120  62.9315490  71.2569400  54.5127810  63.3426960
  72.9760210  64.2610090  65.2113850  73.5934210  64.9361170  64.9298300
  72.1153330  64.6698070  65.1201350  68.2692550  63.4509950  54.0920700
  67.8920530  63.9397050  53.3605600  68.5265620  64.1235230  54.7227230
  75.8781480  51.8526340  59.5506210  76.1856460  51.2973230  58.8341710
  74.9482180  51.9870800  59.3679200  73.8718880  60.4439910  59.0686060
  73.4675880  59.7317160  58.5731960  73.9582000  60.0993150  59.9574100
  74.3400580  64.1307470  61.2325270  74.0428870  63.5252940  60.5533050
  75.2900400  64.1684780  61.1214630  72.5847500  57.2183120  62.8485100
  73.1362090  57.3278460  62.0738350  73.0991010  57.5920720  63.5640330
  73.4319010  63.8689160  67.8833070  72.5347540  64.0929130  68.1306470
  73.4571880  63.9924100  66.9344470  72.2590230  60.7402480  66.4590440
  72.1198000  61.6125280  66.8277840  71.3771590  60.3975290  66.3138380
  74.0570580  66.6824180  68.6675590  74.0286010  67.0867130  67.8004020
  73.8935550  65.7534540  68.5047190  70.5723510  59.3384890  56.5692710
  70.4521110  60.0646980  55.9573980  70.2624400  58.5687800  56.0920620
  68.2108880  62.5100030  62.3761350  68.2889300  62.6448800  61.4317070
  68.8250560  61.8015920  62.5689470  69.4556510  64.2100220  58.7867530
  69.0484590  64.3514810  57.9321130  70.3469520  63.9260380  58.5838740
  73.7278170  68.4246000  56.8990200  73.5520650  67.5081540  56.6858000
  72.8733910  68.7833290  57.1388000  68.2668400  63.5514200  64.9155810
  68.4299440  63.0819560  64.0975180  68.7320850  63.0437760  65.5804650
  73.0387170  52.6819960  59.9516380  72.5955320  53.4629500  59.6200900
  73.5972160  53.0049850  60.6587320  76.1545990  52.3030660  54.8322210
  75.5300170  52.2990530  55.5575520  76.0676110  51.4361620  54.4358180
  75.0763070  53.2267290  61.8105980  75.3735400  54.1330120  61.7298000
  75.6248630  52.7386070  61.1965550  72.8301390  57.8053530  57.6797630
  72.6042310  57.5890700  58.5844250  72.0493920  58.2381990  57.3343600
  75.2700600  58.7039110  68.3457900  75.1744200  57.7633840  68.1958300
  76.1132580  58.9254180  67.9505970  70.4011140  55.1152780  66.4991680
  70.0074530  55.9627990  66.7064460  69.7129540  54.4779150  66.6900320
  67.7028190  53.0381240  60.5321760  67.4141240  53.6084100  61.2446740
  68.4473950  52.5585690  60.8952990  67.8898420  56.9801360  51.7424480
  67.8073090  57.9232120  51.8839470  67.5381480  56.8376270  50.8636830
  75.6896550  55.7140390  60.8094830  75.6932610  55.2730340  59.9599370
  76.5847670  56.0357720  60.9166650  71.5398930  55.5966880  59.7689040
  71.1998980  56.0742110  60.5256090  70.7776250  55.1432000  59.4090140
  75.7516700  56.7152470  53.8001590  75.8729520  56.6738950  54.7487410
  75.3665210  57.5776620  53.6448320  74.7638200  59.0253610  53.1984890
  74.1955100  58.5771860  52.5720800  75.4727200  59.3846390  52.6650040
  69.8407380  62.9265630  67.0751620  69.4562170  62.2859300  67.6734580
  70.1519570  63.6301750  67.6446350  75.9904520  59.7742170  62.5560240
  76.3574650  59.3000740  63.3021580  75.8009580  60.6483740  62.8968580
  68.8545010  54.5185860  58.6853710  68.5691930  54.1541530  59.5232330
  68.7923870  53.7866320  58.0716850  73.7803890  58.8150810  64.8744450
  73.4760960  59.6942790  65.0994810  74.7350350  58.8750600  64.9101890
  72.3085680  63.0211800  55.4711300  71.5347940  62.4809420  55.3110020
  73.0380310  62.5018410  55.1329060  72.3523080  62.6892180  59.1090110
  72.8701750  61.8860440  59.0547000  71.9007100  62.6271320  59.9506940
  69.8367620  59.6553550  66.0215810  69.4782560  60.3207400  66.6089150
  69.5422180  58.8237100  66.3928430  73.0380740  60.1137790  68.9055360
  72.7380880  60.2594970  68.0083180  73.8091980  59.5543080  68.8128750
  76.2083270  64.0371990  57.1533330  76.8954400  64.5841200  57.5340920
  75.4215690  64.5812720  57.1882940  68.3475670  59.6544810  52.6450410
  69.2170520  59.9369610  52.9286330  67.8565990  60.4680680  52.5299220
  75.5110480  61.0418020  56.7658690  75.9673260  61.8523270  56.9918880
  75.1598690  60.7241160  57.5977180  71.4122260  51.3855670  57.2381210
  71.2836890  51.3773570  58.1866130  70.5884280  51.7238760  56.8872220
  68.7146920  68.8672190  53.2112040  69.0744560  69.4661530  52.5569310
  68.5739260  69.4132080  53.9847070  68.4116190  53.1446790  66.6987910
  67.6974710  53.3443710  67.3040520  68.8311230  52.3686360  67.0702710
  68.6988780  67.1327050  67.6854440  68.8079900  66.1921790  67.5449830
  68.0469340  67.3981800  67.0368170  76.6901370  65.4042940  69.0852560
  76.3698240  64.6852180  69.6298250  76.0159730  66.0798010  69.1588620
  74.7315540  66.2503390  54.0285710  74.7225640  66.9833080  53.4130220
  73.8113900  66.0034970  54.1212670  70.3322180  61.4718280  54.7732470
  69.7250130  62.2117180  54.7827770  70.8071530  61.5617640  53.9470670
  75.2401030  56.8711990  56.6734800  74.5317180  57.3398330  57.1148410
  75.5245510  56.2134000  57.3079990  76.3593250  68.8317950  57.3858570
  76.6134750  68.7939340  56.4637940  75.4105730  68.7051280  57.3786820
  73.4436050  55.1797070  54.0485510  74.2926580  55.6167220  53.9825700
  73.0767320  55.4917330  54.8757570  72.3427470  61.4329430  52.5221040
  73.1090740  61.3210790  53.0846470  72.4202160  60.7367400  51.8697810
  71.0374230  58.8654500  53.2053930  71.1177820  57.9182010  53.3171330
  71.9293980  59.1961380  53.3114590  71.8388940  69.0149890  60.3088470
  72.5751420  68.4665350  60.5797040  72.2229860  69.8805900  60.1694460
  68.7234420  65.0823460  56.1829980  67.7974200  65.3244600  56.1735390
  69.1890850  65.9097720  56.0614730  70.8447220  68.1995960  69.4974050
  71.6459950  68.5208010  69.9109450  70.3299040  67.8391540  70.2193960
  74.9491250  68.1880200  52.1314040  75.7419860  68.4769030  51.6795830
  74.4295600  67.7572370  51.4526520  68.5645030  60.6869420  68.4410100
  69.0684050  60.1076700  69.0126330  67.8252450  60.9709650  68.9786470
  75.4668650  63.4083610  51.9956390  75.3619290  62.7935960  52.7217770
  75.2992870  62.8849500  51.2119400  75.6182970  62.0940410  67.9745620
  74.8528640  62.6625410  67.8900290  75.7998930  61.8016620  67.0813850
  70.5968110  58.8299010  69.3360170  70.6373450  58.5312880  70.2445400
  71.4513610  59.2306620  69.1767690  74.3746500  61.4294560  54.4963680
  74.7962920  61.2634430  55.3395070  74.4997340  60.6194790  54.0018820
  72.5373920  57.4091110  67.3034660  72.0070380  56.9182060  66.6758000
  73.2061990  57.8375310  66.7692590  73.0246220  54.3753480  67.3831950
  72.9303090  53.7574230  66.6582820  72.4443610  55.1019770  67.1561860
  75.7907660  52.9326720  64.4159340  75.3424960  52.9550980  63.5704890
  75.1572860  52.5345740  65.0129640  76.1967210  61.8281050  65.0371780
  76.6155320  62.6713780  64.8648020  75.2775840  61.9653090  64.8078560
  73.2705400  57.5027790  51.4421840  73.0694460  56.6395150  51.8035180
  73.0997450  57.4161150  50.5043440  74.0474630  68.1334060  66.1529510
  73.5095720  68.8580120  65.8338210  74.3008590  67.6564400  65.3626850
  75.2999880  56.1018580  67.6785440  75.8899570  55.7934430  68.3663260
  74.4820120  55.6298330  67.8345340  72.0688200  54.6028410  51.4299720
  72.3714100  54.6095840  50.5218870  72.8082790  54.2526270  51.9267380
  76.9036840  69.3685270  66.4116160  76.8295540  70.2720410  66.7188530
  76.0015680  69.0497170  66.3838230  75.2873130  53.5463030  52.4155920
  74.9395130  52.8687020  51.8358370  75.4885900  53.0852540  53.2299310
  71.0918330  63.9070830  52.2629520  71.5293200  64.4500500  52.9187100
  71.5766060  63.0817780  52.2725860  68.3064130  66.6959860  59.7149780
  68.6367140  65.8280920  59.4828420  68.7355130  66.9018380  60.5454740
  72.9026050  65.0268870  57.3751750  72.6021590  64.9033840  58.2755660
  72.7963540  64.1677460  56.9667480  68.7954340  67.5630450  62.4531410
  68.3585330  67.7431250  63.2855560  69.3632020  68.3205070  62.3113130
  68.6278770  60.0750680  58.8120290  67.9727610  59.8062320  58.1679990
  69.4656720  59.9655160  58.3622270  69.6654700  60.4603250  63.3523630
  70.0327740  60.3730650  64.2319650  69.0965520  59.6969800  63.2530490
  69.2170700  57.3712340  67.2582050  68.3226750  57.3379100  67.5975760
  69.7568250  57.5699130  68.0233300  67.8416850  57.2849610  54.7545620
  66.9380930  57.5479810  54.5797280  68.3257470  57.5560780  53.9745580
  70.3844060  56.3415150  52.6640000  71.0935760  55.9198370  52.1787280
  69.6684000  56.4090380  52.0323350  70.0318220  52.3954480  51.7042650
  70.7546350  52.9363420  52.0223870  70.3042740  52.1217900  50.8284190
  69.7210410  51.6460670  61.6065270  70.3686600  51.0958050  61.1660430
  70.1412250  51.9003820  62.4281080  69.4742410  51.8016340  64.3490590
  69.1257230  52.2580160  65.1148770  69.1430110  50.9073470  64.4313020
  71.0806780  64.9735940  68.5143780  71.0376410  64.6028850  69.3958240
  71.2117790  65.9113510  68.6545600  74.7812810  66.5295530  64.1153500
  74.5404170  66.7970090  63.2284020  75.7215450  66.7001260  64.1704360
  70.1463050  51.3292540  67.6241360  70.6946040  51.1480590  66.8607470
  70.2118360  50.5386650  68.1597670  70.9194810  67.9198190  65.6341560
  70.3255130  67.7882890  66.3731600  70.9118650  67.0836330  65.1683660
  70.5507040  65.2856570  64.5849600  69.8241100  64.6661860  64.5175550
  70.6116190  65.6797180  63.7147680  74.1552140  67.5001570  61.3699010
  74.6717160  66.8888930  60.8447270  74.8049520  68.0030350  61.8610020
  68.8337040  68.6030960  57.7946360  68.6659080  67.9701640  58.4928250
  67.9671550  68.8090360  57.4440550  69.4565060  52.4347740  55.2978220
  70.2144420  52.5476620  54.7242250  68.9942230  53.2716940  55.2521650
  75.9978870  54.5487010  58.2880530  75.1853380  54.1743900  57.9476410
  76.5020510  53.7932090  58.5901720  70.4399740  67.2964190  55.2396500
  69.9147360  67.6772220  54.5358460  70.3644320  67.9214960  55.9606210
  71.8290210  52.9611790  53.8380190  72.3582970  52.1741590  53.7088140
  72.4618530  53.6402980  54.0715720  74.0228050  52.6986930  56.8925580
  73.3930790  51.9974240  57.0595710  73.4833190  53.4591060  56.6758740
  74.1483610  51.9770910  69.3278070  73.8667880  52.4804510  68.5638890
  74.5303310  51.1792660  68.9620200  73.0392710  69.2446570  54.1145750
  73.7711530  68.9605850  53.5669640  73.2986380  69.0059850  55.0045130
  72.2007500  65.3611300  54.1192080  71.5716380  65.8296400  54.6677910
  72.3155330  64.5160520  54.5538270  71.8041090  61.5015790  43.0278310
  70.9725970  61.2464500  43.4274820  72.4122070  61.5726560  43.7636230
  71.7842350  65.5355880  43.2236330  72.0870390  64.6453620  43.0446550
  72.5285940  66.0926100  42.9958580  70.2133040  56.4617680  36.8120700
  69.3249740  56.8033650  36.7100580  70.4974230  56.2618000  35.9201530
  68.1766050  59.0623330  42.6960400  68.7482160  58.2945530  42.6964040
  68.1767590  59.3612090  41.7867010  69.4190920  54.4707690  44.4829330
  69.2393760  53.5733440  44.7632090  69.0171000  55.0179560  45.1576280
  72.3894430  55.0449180  37.8459080  72.4961180  55.9452910  38.1527840
  71.4786790  54.9967150  37.5553730  70.0377590  56.9668190  43.0911670
  70.7187700  57.2306560  43.7099070  69.7225640  56.1269060  43.4249680
  74.2302160  58.0135550  42.1784260  74.7380380  58.5116520  42.8189280
  74.7615400  57.2370750  42.0023620  72.5138260  52.6534110  46.4447680
  72.5156700  53.1706500  45.6393580  71.6842570  52.1764290  46.4217610
  73.7641110  62.2929290  44.6221180  73.4310490  62.9198210  45.2642250
  73.9407790  62.8191170  43.8422850  72.1953590  54.3644070  44.4518130
  72.5370400  55.2086120  44.1572000  71.2569400  54.5127810  44.5683470
  72.9760210  64.2610090  46.4370360  73.5934210  64.9361170  46.1554810
  72.1153330  64.6698070  46.3457860  68.2692550  63.4509950  35.3177210
  67.8920530  63.9397050  34.5862110  68.5265620  64.1235230  35.9483740
  75.8781480  51.8526340  40.7762720  76.1856460  51.2973230  40.0598220
  74.9482180  51.9870800  40.5935710  73.8718880  60.4439910  40.2942570
  73.4675880  59.7317160  39.7988470  73.9582000  60.0993150  41.1830610
  74.3400580  64.1307470  42.4581780  74.0428870  63.5252940  41.7789560
  75.2900400  64.1684780  42.3471140  72.5847500  57.2183120  44.0741610
  73.1362090  57.3278460  43.2994860  73.0991010  57.5920720  44.7896840
  73.4319010  63.8689160  49.1089580  72.5347540  64.0929130  49.3562980
  73.4571880  63.9924100  48.1600980  72.2590230  60.7402480  47.6846950
  72.1198000  61.6125280  48.0534350  71.3771590  60.3975290  47.5394890
  74.0570580  66.6824180  49.8932100  74.0286010  67.0867130  49.0260530
  73.8935550  65.7534540  49.7303700  70.5723510  59.3384890  37.7949220
  70.4521110  60.0646980  37.1830490  70.2624400  58.5687800  37.3177130
  68.2108880  62.5100030  43.6017860  68.2889300  62.6448800  42.6573580
  68.8250560  61.8015920  43.7945980  69.4556510  64.2100220  40.0124040
  69.0484590  64.3514810  39.1577640  70.3469520  63.9260380  39.8095250
  73.7278170  68.4246000  38.1246710  73.5520650  67.5081540  37.9114510
  72.8733910  68.7833290  38.3644510  68.2668400  63.5514200  46.1412320
  68.4299440  63.0819560  45.3231690  68.7320850  63.0437760  46.8061160
  73.0387170  52.6819960  41.1772890  72.5955320  53.4629500  40.8457410
  73.5972160  53.0049850  41.8843830  76.1545990  52.3030660  36.0578720
  75.5300170  52.2990530  36.7832030  76.0676110  51.4361620  35.6614690
  75.0763070  53.2267290  43.0362490  75.3735400  54.1330120  42.9554510
  75.6248630  52.7386070  42.4222060  72.8301390  57.8053530  38.9054140
  72.6042310  57.5890700  39.8100760  72.0493920  58.2381990  38.5600110
  75.2700600  58.7039110  49.5714410  75.1744200  57.7633840  49.4214810
  76.1132580  58.9254180  49.1762480  70.4011140  55.1152780  47.7248190
  70.0074530  55.9627990  47.9320970  69.7129540  54.4779150  47.9156830
  67.8898420  56.9801360  32.9680990  67.8073090  57.9232120  33.1095980
  67.5381480  56.8376270  32.0893340  75.6896550  55.7140390  42.0351340
  75.6932610  55.2730340  41.1855880  76.5847670  56.0357720  42.1423160
  71.5398930  55.5966880  40.9945550  71.1998980  56.0742110  41.7512600
  70.7776250  55.1432000  40.6346650  75.7516700  56.7152470  35.0258100
  75.8729520  56.6738950  35.9743920  75.3665210  57.5776620  34.8704830
  74.7638200  59.0253610  34.4241400  74.1955100  58.5771860  33.7977310
  75.4727200  59.3846390  33.8906550  69.8407380  62.9265630  48.3008130
  69.4562170  62.2859300  48.8991090  70.1519570  63.6301750  48.8702860
  75.9904520  59.7742170  43.7816750  76.3574650  59.3000740  44.5278090
  75.8009580  60.6483740  44.1225090  68.8545010  54.5185860  39.9110220
  68.5691930  54.1541530  40.7488840  68.7923870  53.7866320  39.2973360
  73.7803890  58.8150810  46.1000960  73.4760960  59.6942790  46.3251320
  74.7350350  58.8750600  46.1358400  72.3085680  63.0211800  36.6967810
  71.5347940  62.4809420  36.5366530  73.0380310  62.5018410  36.3585570
  72.3523080  62.6892180  40.3346620  72.8701750  61.8860440  40.2803510
  71.9007100  62.6271320  41.1763450  69.8367620  59.6553550  47.2472320
  69.4782560  60.3207400  47.8345660  69.5422180  58.8237100  47.6184940
  73.0380740  60.1137790  50.1311870  72.7380880  60.2594970  49.2339690
  73.8091980  59.5543080  50.0385260  76.2083270  64.0371990  38.3789840
  76.8954400  64.5841200  38.7597430  75.4215690  64.5812720  38.4139450
  68.3475670  59.6544810  33.8706920  69.2170520  59.9369610  34.1542840
  67.8565990  60.4680680  33.7555730  75.5110480  61.0418020  37.9915200
  75.9673260  61.8523270  38.2175390  75.1598690  60.7241160  38.8233690
  71.4122260  51.3855670  38.4637720  71.2836890  51.3773570  39.4122640
  70.5884280  51.7238760  38.1128730  68.7146920  68.8672190  34.4368550
  69.0744560  69.4661530  33.7825820  68.5739260  69.4132080  35.2103580
  68.4116190  53.1446790  47.9244420  67.6974710  53.3443710  48.5297030
  68.8311230  52.3686360  48.2959220  68.6988780  67.1327050  48.9110950
  68.8079900  66.1921790  48.7706340  68.0469340  67.3981800  48.2624680
  76.6901370  65.4042940  50.3109070  76.3698240  64.6852180  50.8554760
  76.0159730  66.0798010  50.3845130  74.7315540  66.2503390  35.2542220
  74.7225640  66.9833080  34.6386730  73.8113900  66.0034970  35.3469180
  70.3322180  61.4718280  35.9988980  69.7250130  62.2117180  36.0084280
  70.8071530  61.5617640  35.1727180  75.2401030  56.8711990  37.8991310
  74.5317180  57.3398330  38.3404920  75.5245510  56.2134000  38.5336500
  76.3593250  68.8317950  38.6115080  76.6134750  68.7939340  37.6894450
  75.4105730  68.7051280  38.6043330  73.4436050  55.1797070  35.2742020
  74.2926580  55.6167220  35.2082210  73.0767320  55.4917330  36.1014080
  72.3427470  61.4329430  33.7477550  73.1090740  61.3210790  34.3102980
  72.4202160  60.7367400  33.0954320  71.0374230  58.8654500  34.4310440
  71.1177820  57.9182010  34.5427840  71.9293980  59.1961380  34.5371100
  71.8388940  69.0149890  41.5344980  72.5751420  68.4665350  41.8053550
  72.2229860  69.8805900  41.3950970  68.7234420  65.0823460  37.4086490
  67.7974200  65.3244600  37.3991900  69.1890850  65.9097720  37.2871240
  70.8447220  68.1995960  50.7230560  71.6459950  68.5208010  51.1365960
  70.3299040  67.8391540  51.4450470  74.9491250  68.1880200  33.3570550
  75.7419860  68.4769030  32.9052340  74.4295600  67.7572370  32.6783030
  68.5645030  60.6869420  49.6666610  69.0684050  60.1076700  50.2382840
  67.8252450  60.9709650  50.2042980  75.4668650  63.4083610  33.2212900
  75.3619290  62.7935960  33.9474280  75.2992870  62.8849500  32.4375910
  75.6182970  62.0940410  49.2002130  74.8528640  62.6625410  49.1156800
  75.7998930  61.8016620  48.3070360  70.5968110  58.8299010  50.5616680
  70.6373450  58.5312880  51.4701910  71.4513610  59.2306620  50.4024200
  74.3746500  61.4294560  35.7220190  74.7962920  61.2634430  36.5651580
  74.4997340  60.6194790  35.2275330  72.5373920  57.4091110  48.5291170
  72.0070380  56.9182060  47.9014510  73.2061990  57.8375310  47.9949100
  73.0246220  54.3753480  48.6088460  72.9303090  53.7574230  47.8839330
  72.4443610  55.1019770  48.3818370  75.7907660  52.9326720  45.6415850
  75.3424960  52.9550980  44.7961400  75.1572860  52.5345740  46.2386150
  76.1967210  61.8281050  46.2628290  76.6155320  62.6713780  46.0904530
  75.2775840  61.9653090  46.0335070  73.2705400  57.5027790  32.6678350
  73.0694460  56.6395150  33.0291690  73.0997450  57.4161150  31.7299950
  74.0474630  68.1334060  47.3786020  73.5095720  68.8580120  47.0594720
  74.3008590  67.6564400  46.5883360  75.2999880  56.1018580  48.9041950
  75.8899570  55.7934430  49.5919770  74.4820120  55.6298330  49.0601850
  72.0688200  54.6028410  32.6556230  72.3714100  54.6095840  31.7475380
  72.8082790  54.2526270  33.1523890  76.9036840  69.3685270  47.6372670
  76.8295540  70.2720410  47.9445040  76.0015680  69.0497170  47.6094740
  75.2873130  53.5463030  33.6412430  74.9395130  52.8687020  33.0614880
  75.4885900  53.0852540  34.4555820  71.0918330  63.9070830  33.4886030
  71.5293200  64.4500500  34.1443610  71.5766060  63.0817780  33.4982370
  68.3064130  66.6959860  40.9406290  68.6367140  65.8280920  40.7084930
  68.7355130  66.9018380  41.7711250  72.9026050  65.0268870  38.6008260
  72.6021590  64.9033840  39.5012170  72.7963540  64.1677460  38.1923990
  68.7954340  67.5630450  43.6787920  68.3585330  67.7431250  44.5112070
  69.3632020  68.3205070  43.5369640  68.6278770  60.0750680  40.0376800
  67.9727610  59.8062320  39.3936500  69.4656720  59.9655160  39.5878780
  69.6654700  60.4603250  44.5780140  70.0327740  60.3730650  45.4576160
  69.0965520  59.6969800  44.4787000  69.2170700  57.3712340  48.4838560
  68.3226750  57.3379100  48.8232270  69.7568250  57.5699130  49.2489810
  67.8416850  57.2849610  35.9802130  66.9380930  57.5479810  35.8053790
  68.3257470  57.5560780  35.2002090  70.3844060  56.3415150  33.8896510
  71.0935760  55.9198370  33.4043790  69.6684000  56.4090380  33.2579860
  70.0318220  52.3954480  32.9299160  70.7546350  52.9363420  33.2480380
  70.3042740  52.1217900  32.0540700  69.7210410  51.6460670  42.8321780
  70.3686600  51.0958050  42.3916940  70.1412250  51.9003820  43.6537590
  69.4742410  51.8016340  45.5747100  69.1257230  52.2580160  46.3405280
  69.1430110  50.9073470  45.6569530  71.0806780  64.9735940  49.7400290
  71.0376410  64.6028850  50.6214750  71.2117790  65.9113510  49.8802110
  74.7812810  66.5295530  45.3410010  74.5404170  66.7970090  44.4540530
  75.7215450  66.7001260  45.3960870  70.1463050  51.3292540  48.8497870
  70.6946040  51.1480590  48.0863980  70.2118360  50.5386650  49.3854180
  70.9194810  67.9198190  46.8598070  70.3255130  67.7882890  47.5988110
  70.9118650  67.0836330  46.3940170  70.5507040  65.2856570  45.8106110
  69.8241100  64.6661860  45.7432060  70.6116190  65.6797180  44.9404190
  74.1552140  67.5001570  42.5955520  74.6717160  66.8888930  42.0703780
  74.8049520  68.0030350  43.0866530  68.8337040  68.6030960  39.0202870
  68.6659080  67.9701640  39.7184760  67.9671550  68.8090360  38.6697060
  69.4565060  52.4347740  36.5234730  70.2144420  52.5476620  35.9498760
  68.9942230  53.2716940  36.4778160  75.9978870  54.5487010  39.5137040
  75.1853380  54.1743900  39.1732920  76.5020510  53.7932090  39.8158230
  70.4399740  67.2964190  36.4653010  69.9147360  67.6772220  35.7614970
  70.3644320  67.9214960  37.1862720  71.8290210  52.9611790  35.0636700
  72.3582970  52.1741590  34.9344650  72.4618530  53.6402980  35.2972230
  74.0228050  52.6986930  38.1182090  73.3930790  51.9974240  38.2852220
  73.4833190  53.4591060  37.9015250  74.1483610  51.9770910  50.5534580
  73.8667880  52.4804510  49.7895400  74.5303310  51.1792660  50.1876710
  73.0392710  69.2446570  35.3402260  73.7711530  68.9605850  34.7926150
  73.2986380  69.0059850  36.2301640  72.2007500  65.3611300  35.3448590
  71.5716380  65.8296400  35.8934420  72.3155330  64.5160520  35.7794780
  71.8041090  61.5015790  24.2534820  70.9725970  61.2464500  24.6531330
  72.4122070  61.5726560  24.9892740  71.7842350  65.5355880  24.4492840
  72.0870390  64.6453620  24.2703060  72.5285940  66.0926100  24.2215090
  70.2133040  56.4617680  18.0377210  69.3249740  56.8033650  17.9357090
  70.4974230  56.2618000  17.1458040  68.1766050  59.0623330  23.9216910
  68.7482160  58.2945530  23.9220550  68.1767590  59.3612090  23.0123520
  69.4190920  54.4707690  25.7085840  69.2393760  53.5733440  25.9888600
  69.0171000  55.0179560  26.3832790  72.3894430  55.0449180  19.0715590
  72.4961180  55.9452910  19.3784350  71.4786790  54.9967150  18.7810240
  70.0377590  56.9668190  24.3168180  70.7187700  57.2306560  24.9355580
  69.7225640  56.1269060  24.6506190  74.2302160  58.0135550  23.4040770
  74.7380380  58.5116520  24.0445790  74.7615400  57.2370750  23.2280130
  72.5138260  52.6534110  27.6704190  72.5156700  53.1706500  26.8650090
  71.6842570  52.1764290  27.6474120  73.7641110  62.2929290  25.8477690
  73.4310490  62.9198210  26.4898760  73.9407790  62.8191170  25.0679360
  72.1953590  54.3644070  25.6774640  72.5370400  55.2086120  25.3828510
  71.2569400  54.5127810  25.7939980  72.9760210  64.2610090  27.6626870
  73.5934210  64.9361170  27.3811320  72.1153330  64.6698070  27.5714370
  68.2692550  63.4509950  16.5433720  67.8920530  63.9397050  15.8118620
  68.5265620  64.1235230  17.1740250  75.8781480  51.8526340  22.0019230
  76.1856460  51.2973230  21.2854730  74.9482180  51.9870800  21.8192220
  73.8718880  60.4439910  21.5199080  73.4675880  59.7317160  21.0244980
  73.9582000  60.0993150  22.4087120  74.3400580  64.1307470  23.6838290
  74.0428870  63.5252940  23.0046070  75.2900400  64.1684780  23.5727650
  72.5847500  57.2183120  25.2998120  73.1362090  57.3278460  24.5251370
  73.0991010  57.5920720  26.0153350  73.4319010  63.8689160  30.3346090
  72.5347540  64.0929130  30.5819490  73.4571880  63.9924100  29.3857490
  72.2590230  60.7402480  28.9103460  72.1198000  61.6125280  29.2790860
  71.3771590  60.3975290  28.7651400  74.0570580  66.6824180  31.1188610
  74.0286010  67.0867130  30.2517040  73.8935550  65.7534540  30.9560210
  70.5723510  59.3384890  19.0205730  70.4521110  60.0646980  18.4087000
  70.2624400  58.5687800  18.5433640  68.2108880  62.5100030  24.8274370
  68.2889300  62.6448800  23.8830090  68.8250560  61.8015920  25.0202490
  69.4556510  64.2100220  21.2380550  69.0484590  64.3514810  20.3834150
  70.3469520  63.9260380  21.0351760  73.7278170  68.4246000  19.3503220
  73.5520650  67.5081540  19.1371020  72.8733910  68.7833290  19.5901020
  68.2668400  63.5514200  27.3668830  68.4299440  63.0819560  26.5488200
  68.7320850  63.0437760  28.0317670  73.0387170  52.6819960  22.4029400
  72.5955320  53.4629500  22.0713920  73.5972160  53.0049850  23.1100340
  76.1545990  52.3030660  17.2835230  75.5300170  52.2990530  18.0088540
  76.0676110  51.4361620  16.8871200  75.0763070  53.2267290  24.2619000
  75.3735400  54.1330120  24.1811020  75.6248630  52.7386070  23.6478570
  72.8301390  57.8053530  20.1310650  72.6042310  57.5890700  21.0357270
  72.0493920  58.2381990  19.7856620  75.2700600  58.7039110  30.7970920
  75.1744200  57.7633840  30.6471320  76.1132580  58.9254180  30.4018990
  70.4011140  55.1152780  28.9504700  70.0074530  55.9627990  29.1577480
  69.7129540  54.4779150  29.1413340  67.7028190  53.0381240  22.9834780
  67.4141240  53.6084100  23.6959760  68.4473950  52.5585690  23.3466010
  67.8898420  56.9801360  14.1937500  67.8073090  57.9232120  14.3352490
  67.5381480  56.8376270  13.3149850  75.6896550  55.7140390  23.2607850
  75.6932610  55.2730340  22.4112390  76.5847670  56.0357720  23.3679670
  71.5398930  55.5966880  22.2202060  71.1998980  56.0742110  22.9769110
  70.7776250  55.1432000  21.8603160  75.7516700  56.7152470  16.2514610
  75.8729520  56.6738950  17.2000430  75.3665210  57.5776620  16.0961340
  74.7638200  59.0253610  15.6497910  74.1955100  58.5771860  15.0233820
  75.4727200  59.3846390  15.1163060  69.8407380  62.9265630  29.5264640
  69.4562170  62.2859300  30.1247600  70.1519570  63.6301750  30.0959370
  75.9904520  59.7742170  25.0073260  76.3574650  59.3000740  25.7534600
  75.8009580  60.6483740  25.3481600  68.8545010  54.5185860  21.1366730
  68.5691930  54.1541530  21.9745350  68.7923870  53.7866320  20.5229870
  73.7803890  58.8150810  27.3257470  73.4760960  59.6942790  27.5507830
  74.7350350  58.8750600  27.3614910  72.3085680  63.0211800  17.9224320
  71.5347940  62.4809420  17.7623040  73.0380310  62.5018410  17.5842080
  72.3523080  62.6892180  21.5603130  72.8701750  61.8860440  21.5060020
  71.9007100  62.6271320  22.4019960  69.8367620  59.6553550  28.4728830
  69.4782560  60.3207400  29.0602170  69.5422180  58.8237100  28.8441450
  73.0380740  60.1137790  31.3568380  72.7380880  60.2594970  30.4596200
  73.8091980  59.5543080  31.2641770  76.2083270  64.0371990  19.6046350
  76.8954400  64.5841200  19.9853940  75.4215690  64.5812720  19.6395960
  68.3475670  59.6544810  15.0963430  69.2170520  59.9369610  15.3799350
  67.8565990  60.4680680  14.9812240  75.5110480  61.0418020  19.2171710
  75.9673260  61.8523270  19.4431900  75.1598690  60.7241160  20.0490200
  71.4122260  51.3855670  19.6894230  71.2836890  51.3773570  20.6379150
  70.5884280  51.7238760  19.3385240  68.7146920  68.8672190  15.6625060
  69.0744560  69.4661530  15.0082330  68.5739260  69.4132080  16.4360090
  68.4116190  53.1446790  29.1500930  67.6974710  53.3443710  29.7553540
  68.8311230  52.3686360  29.5215730  68.6988780  67.1327050  30.1367460
  68.8079900  66.1921790  29.9962850  68.0469340  67.3981800  29.4881190
  76.6901370  65.4042940  31.5365580  76.3698240  64.6852180  32.0811270
  76.0159730  66.0798010  31.6101640  74.7315540  66.2503390  16.4798730
  74.7225640  66.9833080  15.8643240  73.8113900  66.0034970  16.5725690
  70.3322180  61.4718280  17.2245490  69.7250130  62.2117180  17.2340790
  70.8071530  61.5617640  16.3983690  75.2401030  56.8711990  19.1247820
  74.5317180  57.3398330  19.5661430  75.5245510  56.2134000  19.7593010
  76.3593250  68.8317950  19.8371590  76.6134750  68.7939340  18.9150960
  75.4105730  68.7051280  19.8299840  73.4436050  55.1797070  16.4998530
  74.2926580  55.6167220  16.4338720  73.0767320  55.4917330  17.3270590
  72.3427470  61.4329430  14.9734060  73.1090740  61.3210790  15.5359490
  72.4202160  60.7367400  14.3210830  71.0374230  58.8654500  15.6566950
  71.1177820  57.9182010  15.7684350  71.9293980  59.1961380  15.7627610
  71.8388940  69.0149890  22.7601490  72.5751420  68.4665350  23.0310060
  72.2229860  69.8805900  22.6207480  68.7234420  65.0823460  18.6343000
  67.7974200  65.3244600  18.6248410  69.1890850  65.9097720  18.5127750
  70.8447220  68.1995960  31.9487070  71.6459950  68.5208010  32.3622470
  70.3299040  67.8391540  32.6706980  74.9491250  68.1880200  14.5827060
  75.7419860  68.4769030  14.1308850  74.4295600  67.7572370  13.9039540
  68.5645030  60.6869420  30.8923120  69.0684050  60.1076700  31.4639350
  67.8252450  60.9709650  31.4299490  75.4668650  63.4083610  14.4469410
  75.3619290  62.7935960  15.1730790  75.2992870  62.8849500  13.6632420
  75.6182970  62.0940410  30.4258640  74.8528640  62.6625410  30.3413310
  75.7998930  61.8016620  29.5326870  70.5968110  58.8299010  31.7873190
  70.6373450  58.5312880  32.6958420  71.4513610  59.2306620  31.6280710
  74.3746500  61.4294560  16.9476700  74.7962920  61.2634430  17.7908090
  74.4997340  60.6194790  16.4531840  72.5373920  57.4091110  29.7547680
  72.0070380  56.9182060  29.1271020  73.2061990  57.8375310  29.2205610
  73.0246220  54.3753480  29.8344970  72.9303090  53.7574230  29.1095840
  72.4443610  55.1019770  29.6074880  75.7907660  52.9326720  26.8672360
  75.3424960  52.9550980  26.0217910  75.1572860  52.5345740  27.4642660
  76.1967210  61.8281050  27.4884800  76.6155320  62.6713780  27.3161040
  75.2775840  61.9653090  27.2591580  73.2705400  57.5027790  13.8934860
  73.0694460  56.6395150  14.2548200  73.0997450  57.4161150  12.9556460
  74.0474630  68.1334060  28.6042530  73.5095720  68.8580120  28.2851230
  74.3008590  67.6564400  27.8139870  75.2999880  56.1018580  30.1298460
  75.8899570  55.7934430  30.8176280  74.4820120  55.6298330  30.2858360
  72.0688200  54.6028410  13.8812740  72.3714100  54.6095840  12.9731890
  72.8082790  54.2526270  14.3780400  76.9036840  69.3685270  28.8629180
  76.8295540  70.2720410  29.1701550  76.0015680  69.0497170  28.8351250
  75.2873130  53.5463030  14.8668940  74.9395130  52.8687020  14.2871390
  75.4885900  53.0852540  15.6812330  71.0918330  63.9070830  14.7142540
  71.5293200  64.4500500  15.3700120  71.5766060  63.0817780  14.7238880
  68.3064130  66.6959860  22.1662800  68.6367140  65.8280920  21.9341440
  68.7355130  66.9018380  22.9967760  72.9026050  65.0268870  19.8264770
  72.6021590  64.9033840  20.7268680  72.7963540  64.1677460  19.4180500
  68.7954340  67.5630450  24.9044430  68.3585330  67.7431250  25.7368580
  69.3632020  68.3205070  24.7626150  68.6278770  60.0750680  21.2633310
  67.9727610  59.8062320  20.6193010  69.4656720  59.9655160  20.8135290
  69.6654700  60.4603250  25.8036650  70.0327740  60.3730650  26.6832670
  69.0965520  59.6969800  25.7043510  69.2170700  57.3712340  29.7095070
  68.3226750  57.3379100  30.0488780  69.7568250  57.5699130  30.4746320
  67.8416850  57.2849610  17.2058640  66.9380930  57.5479810  17.0310300
  68.3257470  57.5560780  16.4258600  70.3844060  56.3415150  15.1153020
  71.0935760  55.9198370  14.6300300  69.6684000  56.4090380  14.4836370
  70.0318220  52.3954480  14.1555670  70.7546350  52.9363420  14.4736890
  70.3042740  52.1217900  13.2797210  69.7210410  51.6460670  24.0578290
  70.3686600  51.0958050  23.6173450  70.1412250  51.9003820  24.8794100
  69.4742410  51.8016340  26.8003610  69.1257230  52.2580160  27.5661790
  69.1430110  50.9073470  26.8826040  71.0806780  64.9735940  30.9656800
  71.0376410  64.6028850  31.8471260  71.2117790  65.9113510  31.1058620
  74.7812810  66.5295530  26.5666520  74.5404170  66.7970090  25.6797040
  75.7215450  66.7001260  26.6217380  70.1463050  51.3292540  30.0754380
  70.6946040  51.1480590  29.3120490  70.2118360  50.5386650  30.6110690
  70.9194810  67.9198190  28.0854580  70.3255130  67.7882890  28.8244620
  70.9118650  67.0836330  27.6196680  70.5507040  65.2856570  27.0362620
  69.8241100  64.6661860  26.9688570  70.6116190  65.6797180  26.1660700
  74.1552140  67.5001570  23.8212030  74.6717160  66.8888930  23.2960290
  74.8049520  68.0030350  24.3123040  68.8337040  68.6030960  20.2459380
  68.6659080  67.9701640  20.9441270  67.9671550  68.8090360  19.8953570
  69.4565060  52.4347740  17.7491240  70.2144420  52.5476620  17.1755270
  68.9942230  53.2716940  17.7034670  75.9978870  54.5487010  20.7393550
  75.1853380  54.1743900  20.3989430  76.5020510  53.7932090  21.0414740
  70.4399740  67.2964190  17.6909520  69.9147360  67.6772220  16.9871480
  70.3644320  67.9214960  18.4119230  71.8290210  52.9611790  16.2893210
  72.3582970  52.1741590  16.1601160  72.4618530  53.6402980  16.5228740
  74.0228050  52.6986930  19.3438600  73.3930790  51.9974240  19.5108730
  73.4833190  53.4591060  19.1271760  74.1483610  51.9770910  31.7791090
  73.8667880  52.4804510  31.0151910  74.5303310  51.1792660  31.4133220
  73.0392710  69.2446570  16.5658770  73.7711530  68.9605850  16.0182660
  73.2986380  69.0059850  17.4558150  72.2007500  65.3611300  16.5705100
  71.5716380  65.8296400  17.1190930  72.3155330  64.5160520  17.0051290
  71.8041090  61.5015790   5.4791330  70.9725970  61.2464500   5.8787840
  72.4122070  61.5726560   6.2149250  71.7842350  65.5355880   5.6749350
  72.0870390  64.6453620   5.4959570  72.5285940  66.0926100   5.4471600
  68.1766050  59.0623330   5.1473420  68.7482160  58.2945530   5.1477060
  68.1767590  59.3612090   4.2380030  69.4190920  54.4707690   6.9342350
  69.2393760  53.5733440   7.2145110  69.0171000  55.0179560   7.6089300
  70.0377590  56.9668190   5.5424690  70.7187700  57.2306560   6.1612090
  69.7225640  56.1269060   5.8762700  74.2302160  58.0135550   4.6297280
  74.7380380  58.5116520   5.2702300  74.7615400  57.2370750   4.4536640
  72.5138260  52.6534110   8.8960700  72.5156700  53.1706500   8.0906600
  71.6842570  52.1764290   8.8730630  73.7641110  62.2929290   7.0734200
  73.4310490  62.9198210   7.7155270  73.9407790  62.8191170   6.2935870
  72.1953590  54.3644070   6.9031150  72.5370400  55.2086120   6.6085020
  71.2569400  54.5127810   7.0196490  72.9760210  64.2610090   8.8883380
  73.5934210  64.9361170   8.6067830  72.1153330  64.6698070   8.7970880
  75.8781480  51.8526340   3.2275740  76.1856460  51.2973230   2.5111240
  74.9482180  51.9870800   3.0448730  73.8718880  60.4439910   2.7455590
  73.4675880  59.7317160   2.2501490  73.9582000  60.0993150   3.6343630
  74.3400580  64.1307470   4.9094800  74.0428870  63.5252940   4.2302580
  75.2900400  64.1684780   4.7984160  72.5847500  57.2183120   6.5254630
  73.1362090  57.3278460   5.7507880  73.0991010  57.5920720   7.2409860
  73.4319010  63.8689160  11.5602600  72.5347540  64.0929130  11.8076000
  73.4571880  63.9924100  10.6114000  72.2590230  60.7402480  10.1359970
  72.1198000  61.6125280  10.5047370  71.3771590  60.3975290   9.9907910
  74.0570580  66.6824180  12.3445120  74.0286010  67.0867130  11.4773550
  73.8935550  65.7534540  12.1816720  68.2108880  62.5100030   6.0530880
  68.2889300  62.6448800   5.1086600  68.8250560  61.8015920   6.2459000
  68.2668400  63.5514200   8.5925340  68.4299440  63.0819560   7.7744710
  68.7320850  63.0437760   9.2574180  73.0387170  52.6819960   3.6285910
  72.5955320  53.4629500   3.2970430  73.5972160  53.0049850   4.3356850
  75.0763070  53.2267290   5.4875510  75.3735400  54.1330120   5.4067530
  75.6248630  52.7386070   4.8735080  75.2700600  58.7039110  12.0227430
  75.1744200  57.7633840  11.8727830  76.1132580  58.9254180  11.6275500
  70.4011140  55.1152780  10.1761210  70.0074530  55.9627990  10.3833990
  69.7129540  54.4779150  10.3669850  67.7028190  53.0381240   4.2091290
  67.4141240  53.6084100   4.9216270  68.4473950  52.5585690   4.5722520
  75.6896550  55.7140390   4.4864360  75.6932610  55.2730340   3.6368900
  76.5847670  56.0357720   4.5936180  71.5398930  55.5966880   3.4458570
  71.1998980  56.0742110   4.2025620  70.7776250  55.1432000   3.0859670
  69.8407380  62.9265630  10.7521150  69.4562170  62.2859300  11.3504110
  70.1519570  63.6301750  11.3215880  75.9904520  59.7742170   6.2329770
  76.3574650  59.3000740   6.9791110  75.8009580  60.6483740   6.5738110
  68.8545010  54.5185860   2.3623240  68.5691930  54.1541530   3.2001860
  68.7923870  53.7866320   1.7486380  73.7803890  58.8150810   8.5513980
  73.4760960  59.6942790   8.7764340  74.7350350  58.8750600   8.5871420
  72.3523080  62.6892180   2.7859640  72.8701750  61.8860440   2.7316530
  71.9007100  62.6271320   3.6276470  69.8367620  59.6553550   9.6985340
  69.4782560  60.3207400  10.2858680  69.5422180  58.8237100  10.0697960
  73.0380740  60.1137790  12.5824890  72.7380880  60.2594970  11.6852710
  73.8091980  59.5543080  12.4898280  68.4116190  53.1446790  10.3757440
  67.6974710  53.3443710  10.9810050  68.8311230  52.3686360  10.7472240
  68.6988780  67.1327050  11.3623970  68.8079900  66.1921790  11.2219360
  68.0469340  67.3981800  10.7137700  76.6901370  65.4042940  12.7622090
  76.3698240  64.6852180  13.3067780  76.0159730  66.0798010  12.8358150
  71.8388940  69.0149890   3.9858000  72.5751420  68.4665350   4.2566570
  72.2229860  69.8805900   3.8463990  70.8447220  68.1995960  13.1743580
  71.6459950  68.5208010  13.5878980  70.3299040  67.8391540  13.8963490
  68.5645030  60.6869420  12.1179630  69.0684050  60.1076700  12.6895860
  67.8252450  60.9709650  12.6556000  75.6182970  62.0940410  11.6515150
  74.8528640  62.6625410  11.5669820  75.7998930  61.8016620  10.7583380
  70.5968110  58.8299010  13.0129700  70.6373450  58.5312880  13.9214930
  71.4513610  59.2306620  12.8537220  72.5373920  57.4091110  10.9804190
  72.0070380  56.9182060  10.3527530  73.2061990  57.8375310  10.4462120
  73.0246220  54.3753480  11.0601480  72.9303090  53.7574230  10.3352350
  72.4443610  55.1019770  10.8331390  75.7907660  52.9326720   8.0928870
  75.3424960  52.9550980   7.2474420  75.1572860  52.5345740   8.6899170
  76.1967210  61.8281050   8.7141310  76.6155320  62.6713780   8.5417550
  75.2775840  61.9653090   8.4848090  74.0474630  68.1334060   9.8299040
  73.5095720  68.8580120   9.5107740  74.3008590  67.6564400   9.0396380
  75.2999880  56.1018580  11.3554970  75.8899570  55.7934430  12.0432790
  74.4820120  55.6298330  11.5114870  76.9036840  69.3685270  10.0885690
  76.8295540  70.2720410  10.3958060  76.0015680  69.0497170  10.0607760
  68.3064130  66.6959860   3.3919310  68.6367140  65.8280920   3.1597950
  68.7355130  66.9018380   4.2224270  68.7954340  67.5630450   6.1300940
  68.3585330  67.7431250   6.9625090  69.3632020  68.3205070   5.9882660
  68.6278770  60.0750680   2.4889820  67.9727610  59.8062320   1.8449520
  69.4656720  59.9655160   2.0391800  69.6654700  60.4603250   7.0293160
  70.0327740  60.3730650   7.9089180  69.0965520  59.6969800   6.9300020
  69.2170700  57.3712340  10.9351580  68.3226750  57.3379100  11.2745290
  69.7568250  57.5699130  11.7002830  69.7210410  51.6460670   5.2834800
  70.3686600  51.0958050   4.8429960  70.1412250  51.9003820   6.1050610
  69.4742410  51.8016340   8.0260120  69.1257230  52.2580160   8.7918300
  69.1430110  50.9073470   8.1082550  71.0806780  64.9735940  12.1913310
  71.0376410  64.6028850  13.0727770  71.2117790  65.9113510  12.3315130
  74.7812810  66.5295530   7.7923030  74.5404170  66.7970090   6.9053550
  75.7215450  66.7001260   7.8473890  70.1463050  51.3292540  11.3010890
  70.6946040  51.1480590  10.5377000  70.2118360  50.5386650  11.8367200
  70.9194810  67.9198190   9.3111090  70.3255130  67.7882890  10.0501130
  70.9118650  67.0836330   8.8453190  70.5507040  65.2856570   8.2619130
  69.8241100  64.6661860   8.1945080  70.6116190  65.6797180   7.3917210
  74.1552140  67.5001570   5.0468540  74.6717160  66.8888930   4.5216800
  74.8049520  68.0030350   5.5379550  74.1483610  51.9770910  13.0047600
  73.8667880  52.4804510  12.2408420  74.5303310  51.1792660  12.6389730
  71.8041090  42.7272300  80.5765290  70.9725970  42.4721010  80.9761800
  72.4122070  42.7983070  81.3123210  71.7842350  46.7612390  80.7723310
  72.0870390  45.8710130  80.5933530  72.5285940  47.3182610  80.5445560
  70.2133040  37.6874190  74.3607680  69.3249740  38.0290160  74.2587560
  70.4974230  37.4874510  73.4688510  68.1766050  40.2879840  80.2447380
  68.7482160  39.5202040  80.2451020  68.1767590  40.5868600  79.3353990
  72.3894430  36.2705690  75.3946060  72.4961180  37.1709420  75.7014820
  71.4786790  36.2223660  75.1040710  70.0377590  38.1924700  80.6398650
  70.7187700  38.4563070  81.2586050  69.7225640  37.3525570  80.9736660
  74.2302160  39.2392060  79.7271240  74.7380380  39.7373030  80.3676260
  74.7615400  38.4627260  79.5510600  68.2692550  44.6766460  72.8664190
  67.8920530  45.1653560  72.1349090  68.5265620  45.3491740  73.4970720
  75.8781480  33.0782850  78.3249700  76.1856460  32.5229740  77.6085200
  74.9482180  33.2127310  78.1422690  73.8718880  41.6696420  77.8429550
  73.4675880  40.9573670  77.3475450  73.9582000  41.3249660  78.7317590
  74.3400580  45.3563980  80.0068760  74.0428870  44.7509450  79.3276540
  75.2900400  45.3941290  79.8958120  70.5723510  40.5641400  75.3436200
  70.4521110  41.2903490  74.7317470  70.2624400  39.7944310  74.8664110
  68.2108880  43.7356540  81.1504840  68.2889300  43.8705310  80.2060560
  68.8250560  43.0272430  81.3432960  69.4556510  45.4356730  77.5611020
  69.0484590  45.5771320  76.7064620  70.3469520  45.1516890  77.3582230
  73.7278170  49.6502510  75.6733690  73.5520650  48.7338050  75.4601490
  72.8733910  50.0089800  75.9131490  73.0387170  33.9076470  78.7259870
  72.5955320  34.6886010  78.3944390  73.5972160  34.2306360  79.4330810
  76.1545990  33.5287170  73.6065700  75.5300170  33.5247040  74.3319010
  76.0676110  32.6618130  73.2101670  75.0763070  34.4523800  80.5849470
  75.3735400  35.3586630  80.5041490  75.6248630  33.9642580  79.9709040
  72.8301390  39.0310040  76.4541120  72.6042310  38.8147210  77.3587740
  72.0493920  39.4638500  76.1087090  67.7028190  34.2637750  79.3065250
  67.4141240  34.8340610  80.0190230  68.4473950  33.7842200  79.6696480
  67.8898420  38.2057870  70.5167970  67.8073090  39.1488630  70.6582960
  67.5381480  38.0632780  69.6380320  75.6896550  36.9396900  79.5838320
  75.6932610  36.4986850  78.7342860  76.5847670  37.2614230  79.6910140
  71.5398930  36.8223390  78.5432530  71.1998980  37.2998620  79.2999580
  70.7776250  36.3688510  78.1833630  75.7516700  37.9408980  72.5745080
  75.8729520  37.8995460  73.5230900  75.3665210  38.8033130  72.4191810
  74.7638200  40.2510120  71.9728380  74.1955100  39.8028370  71.3464290
  75.4727200  40.6102900  71.4393530  68.8545010  35.7442370  77.4597200
  68.5691930  35.3798040  78.2975820  68.7923870  35.0122830  76.8460340
  72.3085680  44.2468310  74.2454790  71.5347940  43.7065930  74.0853510
  73.0380310  43.7274920  73.9072550  72.3523080  43.9148690  77.8833600
  72.8701750  43.1116950  77.8290490  71.9007100  43.8527830  78.7250430
  76.2083270  45.2628500  75.9276820  76.8954400  45.8097710  76.3084410
  75.4215690  45.8069230  75.9626430  68.3475670  40.8801320  71.4193900
  69.2170520  41.1626120  71.7029820  67.8565990  41.6937190  71.3042710
  75.5110480  42.2674530  75.5402180  75.9673260  43.0779780  75.7662370
  75.1598690  41.9497670  76.3720670  71.4122260  32.6112180  76.0124700
  71.2836890  32.6030080  76.9609620  70.5884280  32.9495270  75.6615710
  68.7146920  50.0928700  71.9855530  69.0744560  50.6918040  71.3312800
  68.5739260  50.6388590  72.7590560  74.7315540  47.4759900  72.8029200
  74.7225640  48.2089590  72.1873710  73.8113900  47.2291480  72.8956160
  70.3322180  42.6974790  73.5475960  69.7250130  43.4373690  73.5571260
  70.8071530  42.7874150  72.7214160  75.2401030  38.0968500  75.4478290
  74.5317180  38.5654840  75.8891900  75.5245510  37.4390510  76.0823480
  76.3593250  50.0574460  76.1602060  76.6134750  50.0195850  75.2381430
  75.4105730  49.9307790  76.1530310  73.4436050  36.4053580  72.8229000
  74.2926580  36.8423730  72.7569190  73.0767320  36.7173840  73.6501060
  72.3427470  42.6585940  71.2964530  73.1090740  42.5467300  71.8589960
  72.4202160  41.9623910  70.6441300  71.0374230  40.0911010  71.9797420
  71.1177820  39.1438520  72.0914820  71.9293980  40.4217890  72.0858080
  71.8388940  50.2406400  79.0831960  72.5751420  49.6921860  79.3540530
  72.2229860  51.1062410  78.9437950  68.7234420  46.3079970  74.9573470
  67.7974200  46.5501110  74.9478880  69.1890850  47.1354230  74.8358220
  74.9491250  49.4136710  70.9057530  75.7419860  49.7025540  70.4539320
  74.4295600  48.9828880  70.2270010  75.4668650  44.6340120  70.7699880
  75.3619290  44.0192470  71.4961260  75.2992870  44.1106010  69.9862890
  74.3746500  42.6551070  73.2707170  74.7962920  42.4890940  74.1138560
  74.4997340  41.8451300  72.7762310  73.2705400  38.7284300  70.2165330
  73.0694460  37.8651660  70.5778670  73.0997450  38.6417660  69.2786930
  72.0688200  35.8284920  70.2043210  72.3714100  35.8352350  69.2962360
  72.8082790  35.4782780  70.7010870  75.2873130  34.7719540  71.1899410
  74.9395130  34.0943530  70.6101860  75.4885900  34.3109050  72.0042800
  71.0918330  45.1327340  71.0373010  71.5293200  45.6757010  71.6930590
  71.5766060  44.3074290  71.0469350  68.3064130  47.9216370  78.4893270
  68.6367140  47.0537430  78.2571910  68.7355130  48.1274890  79.3198230
  72.9026050  46.2525380  76.1495240  72.6021590  46.1290350  77.0499150
  72.7963540  45.3933970  75.7410970  68.6278770  41.3007190  77.5863780
  67.9727610  41.0318830  76.9423480  69.4656720  41.1911670  77.1365760
  67.8416850  38.5106120  73.5289110  66.9380930  38.7736320  73.3540770
  68.3257470  38.7817290  72.7489070  70.3844060  37.5671660  71.4383490
  71.0935760  37.1454880  70.9530770  69.6684000  37.6346890  70.8066840
  70.0318220  33.6210990  70.4786140  70.7546350  34.1619930  70.7967360
  70.3042740  33.3474410  69.6027680  69.7210410  32.8717180  80.3808760
  70.3686600  32.3214560  79.9403920  70.1412250  33.1260330  81.2024570
  74.1552140  48.7258080  80.1442500  74.6717160  48.1145440  79.6190760
  74.8049520  49.2286860  80.6353510  68.8337040  49.8287470  76.5689850
  68.6659080  49.1958150  77.2671740  67.9671550  50.0346870  76.2184040
  69.4565060  33.6604250  74.0721710  70.2144420  33.7733130  73.4985740
  68.9942230  34.4973450  74.0265140  75.9978870  35.7743520  77.0624020
  75.1853380  35.4000410  76.7219900  76.5020510  35.0188600  77.3645210
  70.4399740  48.5220700  74.0139990  69.9147360  48.9028730  73.3101950
  70.3644320  49.1471470  74.7349700  71.8290210  34.1868300  72.6123680
  72.3582970  33.3998100  72.4831630  72.4618530  34.8659490  72.8459210
  74.0228050  33.9243440  75.6669070  73.3930790  33.2230750  75.8339200
  73.4833190  34.6847570  75.4502230  73.0392710  50.4703080  72.8889240
  73.7711530  50.1862360  72.3413130  73.2986380  50.2316360  73.7788620
  72.2007500  46.5867810  72.8935570  71.5716380  47.0552910  73.4421400
  72.3155330  45.7417030  73.3281760  71.8041090  42.7272300  61.8021800
  70.9725970  42.4721010  62.2018310  72.4122070  42.7983070  62.5379720
  71.7842350  46.7612390  61.9979820  72.0870390  45.8710130  61.8190040
  72.5285940  47.3182610  61.7702070  70.2133040  37.6874190  55.5864190
  69.3249740  38.0290160  55.4844070  70.4974230  37.4874510  54.6945020
  68.1766050  40.2879840  61.4703890  68.7482160  39.5202040  61.4707530
  68.1767590  40.5868600  60.5610500  69.4190920  35.6964200  63.2572820
  69.2393760  34.7989950  63.5375580  69.0171000  36.2436070  63.9319770
  72.3894430  36.2705690  56.6202570  72.4961180  37.1709420  56.9271330
  71.4786790  36.2223660  56.3297220  70.0377590  38.1924700  61.8655160
  70.7187700  38.4563070  62.4842560  69.7225640  37.3525570  62.1993170
  74.2302160  39.2392060  60.9527750  74.7380380  39.7373030  61.5932770
  74.7615400  38.4627260  60.7767110  72.5138260  33.8790620  65.2191170
  72.5156700  34.3963010  64.4137070  71.6842570  33.4020800  65.1961100
  73.7641110  43.5185800  63.3964670  73.4310490  44.1454720  64.0385740
  73.9407790  44.0447680  62.6166340  72.1953590  35.5900580  63.2261620
  72.5370400  36.4342630  62.9315490  71.2569400  35.7384320  63.3426960
  72.9760210  45.4866600  65.2113850  73.5934210  46.1617680  64.9298300
  72.1153330  45.8954580  65.1201350  68.2692550  44.6766460  54.0920700
  67.8920530  45.1653560  53.3605600  68.5265620  45.3491740  54.7227230
  75.8781480  33.0782850  59.5506210  76.1856460  32.5229740  58.8341710
  74.9482180  33.2127310  59.3679200  73.8718880  41.6696420  59.0686060
  73.4675880  40.9573670  58.5731960  73.9582000  41.3249660  59.9574100
  74.3400580  45.3563980  61.2325270  74.0428870  44.7509450  60.5533050
  75.2900400  45.3941290  61.1214630  72.5847500  38.4439630  62.8485100
  73.1362090  38.5534970  62.0738350  73.0991010  38.8177230  63.5640330
  73.4319010  45.0945670  67.8833070  72.5347540  45.3185640  68.1306470
  73.4571880  45.2180610  66.9344470  72.2590230  41.9658990  66.4590440
  72.1198000  42.8381790  66.8277840  71.3771590  41.6231800  66.3138380
  74.0570580  47.9080690  68.6675590  74.0286010  48.3123640  67.8004020
  73.8935550  46.9791050  68.5047190  70.5723510  40.5641400  56.5692710
  70.4521110  41.2903490  55.9573980  70.2624400  39.7944310  56.0920620
  68.2108880  43.7356540  62.3761350  68.2889300  43.8705310  61.4317070
  68.8250560  43.0272430  62.5689470  69.4556510  45.4356730  58.7867530
  69.0484590  45.5771320  57.9321130  70.3469520  45.1516890  58.5838740
  73.7278170  49.6502510  56.8990200  73.5520650  48.7338050  56.6858000
  72.8733910  50.0089800  57.1388000  68.2668400  44.7770710  64.9155810
  68.4299440  44.3076070  64.0975180  68.7320850  44.2694270  65.5804650
  73.0387170  33.9076470  59.9516380  72.5955320  34.6886010  59.6200900
  73.5972160  34.2306360  60.6587320  76.1545990  33.5287170  54.8322210
  75.5300170  33.5247040  55.5575520  76.0676110  32.6618130  54.4358180
  75.0763070  34.4523800  61.8105980  75.3735400  35.3586630  61.7298000
  75.6248630  33.9642580  61.1965550  72.8301390  39.0310040  57.6797630
  72.6042310  38.8147210  58.5844250  72.0493920  39.4638500  57.3343600
  75.2700600  39.9295620  68.3457900  75.1744200  38.9890350  68.1958300
  76.1132580  40.1510690  67.9505970  70.4011140  36.3409290  66.4991680
  70.0074530  37.1884500  66.7064460  69.7129540  35.7035660  66.6900320
  67.7028190  34.2637750  60.5321760  67.4141240  34.8340610  61.2446740
  68.4473950  33.7842200  60.8952990  67.8898420  38.2057870  51.7424480
  67.8073090  39.1488630  51.8839470  67.5381480  38.0632780  50.8636830
  75.6896550  36.9396900  60.8094830  75.6932610  36.4986850  59.9599370
  76.5847670  37.2614230  60.9166650  71.5398930  36.8223390  59.7689040
  71.1998980  37.2998620  60.5256090  70.7776250  36.3688510  59.4090140
  75.7516700  37.9408980  53.8001590  75.8729520  37.8995460  54.7487410
  75.3665210  38.8033130  53.6448320  74.7638200  40.2510120  53.1984890
  74.1955100  39.8028370  52.5720800  75.4727200  40.6102900  52.6650040
  69.8407380  44.1522140  67.0751620  69.4562170  43.5115810  67.6734580
  70.1519570  44.8558260  67.6446350  75.9904520  40.9998680  62.5560240
  76.3574650  40.5257250  63.3021580  75.8009580  41.8740250  62.8968580
  68.8545010  35.7442370  58.6853710  68.5691930  35.3798040  59.5232330
  68.7923870  35.0122830  58.0716850  73.7803890  40.0407320  64.8744450
  73.4760960  40.9199300  65.0994810  74.7350350  40.1007110  64.9101890
  72.3085680  44.2468310  55.4711300  71.5347940  43.7065930  55.3110020
  73.0380310  43.7274920  55.1329060  72.3523080  43.9148690  59.1090110
  72.8701750  43.1116950  59.0547000  71.9007100  43.8527830  59.9506940
  69.8367620  40.8810060  66.0215810  69.4782560  41.5463910  66.6089150
  69.5422180  40.0493610  66.3928430  73.0380740  41.3394300  68.9055360
  72.7380880  41.4851480  68.0083180  73.8091980  40.7799590  68.8128750
  76.2083270  45.2628500  57.1533330  76.8954400  45.8097710  57.5340920
  75.4215690  45.8069230  57.1882940  68.3475670  40.8801320  52.6450410
  69.2170520  41.1626120  52.9286330  67.8565990  41.6937190  52.5299220
  75.5110480  42.2674530  56.7658690  75.9673260  43.0779780  56.9918880
  75.1598690  41.9497670  57.5977180  71.4122260  32.6112180  57.2381210
  71.2836890  32.6030080  58.1866130  70.5884280  32.9495270  56.8872220
  68.7146920  50.0928700  53.2112040  69.0744560  50.6918040  52.5569310
  68.5739260  50.6388590  53.9847070  68.4116190  34.3703300  66.6987910
  67.6974710  34.5700220  67.3040520  68.8311230  33.5942870  67.0702710
  68.6988780  48.3583560  67.6854440  68.8079900  47.4178300  67.5449830
  68.0469340  48.6238310  67.0368170  76.6901370  46.6299450  69.0852560
  76.3698240  45.9108690  69.6298250  76.0159730  47.3054520  69.1588620
  74.7315540  47.4759900  54.0285710  74.7225640  48.2089590  53.4130220
  73.8113900  47.2291480  54.1212670  70.3322180  42.6974790  54.7732470
  69.7250130  43.4373690  54.7827770  70.8071530  42.7874150  53.9470670
  75.2401030  38.0968500  56.6734800  74.5317180  38.5654840  57.1148410
  75.5245510  37.4390510  57.3079990  76.3593250  50.0574460  57.3858570
  76.6134750  50.0195850  56.4637940  75.4105730  49.9307790  57.3786820
  73.4436050  36.4053580  54.0485510  74.2926580  36.8423730  53.9825700
  73.0767320  36.7173840  54.8757570  72.3427470  42.6585940  52.5221040
  73.1090740  42.5467300  53.0846470  72.4202160  41.9623910  51.8697810
  71.0374230  40.0911010  53.2053930  71.1177820  39.1438520  53.3171330
  71.9293980  40.4217890  53.3114590  71.8388940  50.2406400  60.3088470
  72.5751420  49.6921860  60.5797040  72.2229860  51.1062410  60.1694460
  68.7234420  46.3079970  56.1829980  67.7974200  46.5501110  56.1735390
  69.1890850  47.1354230  56.0614730  70.8447220  49.4252470  69.4974050
  71.6459950  49.7464520  69.9109450  70.3299040  49.0648050  70.2193960
  74.9491250  49.4136710  52.1314040  75.7419860  49.7025540  51.6795830
  74.4295600  48.9828880  51.4526520  68.5645030  41.9125930  68.4410100
  69.0684050  41.3333210  69.0126330  67.8252450  42.1966160  68.9786470
  75.4668650  44.6340120  51.9956390  75.3619290  44.0192470  52.7217770
  75.2992870  44.1106010  51.2119400  75.6182970  43.3196920  67.9745620
  74.8528640  43.8881920  67.8900290  75.7998930  43.0273130  67.0813850
  70.5968110  40.0555520  69.3360170  70.6373450  39.7569390  70.2445400
  71.4513610  40.4563130  69.1767690  74.3746500  42.6551070  54.4963680
  74.7962920  42.4890940  55.3395070  74.4997340  41.8451300  54.0018820
  72.5373920  38.6347620  67.3034660  72.0070380  38.1438570  66.6758000
  73.2061990  39.0631820  66.7692590  73.0246220  35.6009990  67.3831950
  72.9303090  34.9830740  66.6582820  72.4443610  36.3276280  67.1561860
  75.7907660  34.1583230  64.4159340  75.3424960  34.1807490  63.5704890
  75.1572860  33.7602250  65.0129640  76.1967210  43.0537560  65.0371780
  76.6155320  43.8970290  64.8648020  75.2775840  43.1909600  64.8078560
  73.2705400  38.7284300  51.4421840  73.0694460  37.8651660  51.8035180
  73.0997450  38.6417660  50.5043440  74.0474630  49.3590570  66.1529510
  73.5095720  50.0836630  65.8338210  74.3008590  48.8820910  65.3626850
  75.2999880  37.3275090  67.6785440  75.8899570  37.0190940  68.3663260
  74.4820120  36.8554840  67.8345340  72.0688200  35.8284920  51.4299720
  72.3714100  35.8352350  50.5218870  72.8082790  35.4782780  51.9267380
  76.9036840  50.5941780  66.4116160  76.8295540  51.4976920  66.7188530
  76.0015680  50.2753680  66.3838230  75.2873130  34.7719540  52.4155920
  74.9395130  34.0943530  51.8358370  75.4885900  34.3109050  53.2299310
  71.0918330  45.1327340  52.2629520  71.5293200  45.6757010  52.9187100
  71.5766060  44.3074290  52.2725860  68.3064130  47.9216370  59.7149780
  68.6367140  47.0537430  59.4828420  68.7355130  48.1274890  60.5454740
  72.9026050  46.2525380  57.3751750  72.6021590  46.1290350  58.2755660
  72.7963540  45.3933970  56.9667480  68.7954340  48.7886960  62.4531410
  68.3585330  48.9687760  63.2855560  69.3632020  49.5461580  62.3113130
  68.6278770  41.3007190  58.8120290  67.9727610  41.0318830  58.1679990
  69.4656720  41.1911670  58.3622270  69.6654700  41.6859760  63.3523630
  70.0327740  41.5987160  64.2319650  69.0965520  40.9226310  63.2530490
  69.2170700  38.5968850  67.2582050  68.3226750  38.5635610  67.5975760
  69.7568250  38.7955640  68.0233300  67.8416850  38.5106120  54.7545620
  66.9380930  38.7736320  54.5797280  68.3257470  38.7817290  53.9745580
  70.3844060  37.5671660  52.6640000  71.0935760  37.1454880  52.1787280
  69.6684000  37.6346890  52.0323350  70.0318220  33.6210990  51.7042650
  70.7546350  34.1619930  52.0223870  70.3042740  33.3474410  50.8284190
  69.7210410  32.8717180  61.6065270  70.3686600  32.3214560  61.1660430
  70.1412250  33.1260330  62.4281080  69.4742410  33.0272850  64.3490590
  69.1257230  33.4836670  65.1148770  69.1430110  32.1329980  64.4313020
  71.0806780  46.1992450  68.5143780  71.0376410  45.8285360  69.3958240
  71.2117790  47.1370020  68.6545600  74.7812810  47.7552040  64.1153500
  74.5404170  48.0226600  63.2284020  75.7215450  47.9257770  64.1704360
  70.1463050  32.5549050  67.6241360  70.6946040  32.3737100  66.8607470
  70.2118360  31.7643160  68.1597670  70.9194810  49.1454700  65.6341560
  70.3255130  49.0139400  66.3731600  70.9118650  48.3092840  65.1683660
  70.5507040  46.5113080  64.5849600  69.8241100  45.8918370  64.5175550
  70.6116190  46.9053690  63.7147680  74.1552140  48.7258080  61.3699010
  74.6717160  48.1145440  60.8447270  74.8049520  49.2286860  61.8610020
  68.8337040  49.8287470  57.7946360  68.6659080  49.1958150  58.4928250
  67.9671550  50.0346870  57.4440550  69.4565060  33.6604250  55.2978220
  70.2144420  33.7733130  54.7242250  68.9942230  34.4973450  55.2521650
  75.9978870  35.7743520  58.2880530  75.1853380  35.4000410  57.9476410
  76.5020510  35.0188600  58.5901720  70.4399740  48.5220700  55.2396500
  69.9147360  48.9028730  54.5358460  70.3644320  49.1471470  55.9606210
  71.8290210  34.1868300  53.8380190  72.3582970  33.3998100  53.7088140
  72.4618530  34.8659490  54.0715720  74.0228050  33.9243440  56.8925580
  73.3930790  33.2230750  57.0595710  73.4833190  34.6847570  56.6758740
  74.1483610  33.2027420  69.3278070  73.8667880  33.7061020  68.5638890
  74.5303310  32.4049170  68.9620200  73.0392710  50.4703080  54.1145750
  73.7711530  50.1862360  53.5669640  73.2986380  50.2316360  55.0045130
  72.2007500  46.5867810  54.1192080  71.5716380  47.0552910  54.6677910
  72.3155330  45.7417030  54.5538270  71.8041090  42.7272300  43.0278310
  70.9725970  42.4721010  43.4274820  72.4122070  42.7983070  43.7636230
  71.7842350  46.7612390  43.2236330  72.0870390  45.8710130  43.0446550
  72.5285940  47.3182610  42.9958580  70.2133040  37.6874190  36.8120700
  69.3249740  38.0290160  36.7100580  70.4974230  37.4874510  35.9201530
  68.1766050  40.2879840  42.6960400  68.7482160  39.5202040  42.6964040
  68.1767590  40.5868600  41.7867010  69.4190920  35.6964200  44.4829330
  69.2393760  34.7989950  44.7632090  69.0171000  36.2436070  45.1576280
  72.3894430  36.2705690  37.8459080  72.4961180  37.1709420  38.1527840
  71.4786790  36.2223660  37.5553730  70.0377590  38.1924700  43.0911670
  70.7187700  38.4563070  43.7099070  69.7225640  37.3525570  43.4249680
  74.2302160  39.2392060  42.1784260  74.7380380  39.7373030  42.8189280
  74.7615400  38.4627260  42.0023620  72.5138260  33.8790620  46.4447680
  72.5156700  34.3963010  45.6393580  71.6842570  33.4020800  46.4217610
  73.7641110  43.5185800  44.6221180  73.4310490  44.1454720  45.2642250
  73.9407790  44.0447680  43.8422850  72.1953590  35.5900580  44.4518130
  72.5370400  36.4342630  44.1572000  71.2569400  35.7384320  44.5683470
  72.9760210  45.4866600  46.4370360  73.5934210  46.1617680  46.1554810
  72.1153330  45.8954580  46.3457860  68.2692550  44.6766460  35.3177210
  67.8920530  45.1653560  34.5862110  68.5265620  45.3491740  35.9483740
  75.8781480  33.0782850  40.7762720  76.1856460  32.5229740  40.0598220
  74.9482180  33.2127310  40.5935710  73.8718880  41.6696420  40.2942570
  73.4675880  40.9573670  39.7988470  73.9582000  41.3249660  41.1830610
  74.3400580  45.3563980  42.4581780  74.0428870  44.7509450  41.7789560
  75.2900400  45.3941290  42.3471140  72.5847500  38.4439630  44.0741610
  73.1362090  38.5534970  43.2994860  73.0991010  38.8177230  44.7896840
  73.4319010  45.0945670  49.1089580  72.5347540  45.3185640  49.3562980
  73.4571880  45.2180610  48.1600980  72.2590230  41.9658990  47.6846950
  72.1198000  42.8381790  48.0534350  71.3771590  41.6231800  47.5394890
  74.0570580  47.9080690  49.8932100  74.0286010  48.3123640  49.0260530
  73.8935550  46.9791050  49.7303700  70.5723510  40.5641400  37.7949220
  70.4521110  41.2903490  37.1830490  70.2624400  39.7944310  37.3177130
  68.2108880  43.7356540  43.6017860  68.2889300  43.8705310  42.6573580
  68.8250560  43.0272430  43.7945980  69.4556510  45.4356730  40.0124040
  69.0484590  45.5771320  39.1577640  70.3469520  45.1516890  39.8095250
  73.7278170  49.6502510  38.1246710  73.5520650  48.7338050  37.9114510
  72.8733910  50.0089800  38.3644510  68.2668400  44.7770710  46.1412320
  68.4299440  44.3076070  45.3231690  68.7320850  44.2694270  46.8061160
  73.0387170  33.9076470  41.1772890  72.5955320  34.6886010  40.8457410
  73.5972160  34.2306360  41.8843830  76.1545990  33.5287170  36.0578720
  75.5300170  33.5247040  36.7832030  76.0676110  32.6618130  35.6614690
  75.0763070  34.4523800  43.0362490  75.3735400  35.3586630  42.9554510
  75.6248630  33.9642580  42.4222060  72.8301390  39.0310040  38.9054140
  72.6042310  38.8147210  39.8100760  72.0493920  39.4638500  38.5600110
  75.2700600  39.9295620  49.5714410  75.1744200  38.9890350  49.4214810
  76.1132580  40.1510690  49.1762480  70.4011140  36.3409290  47.7248190
  70.0074530  37.1884500  47.9320970  69.7129540  35.7035660  47.9156830
  67.7028190  34.2637750  41.7578270  67.4141240  34.8340610  42.4703250
  68.4473950  33.7842200  42.1209500  67.8898420  38.2057870  32.9680990
  67.8073090  39.1488630  33.1095980  67.5381480  38.0632780  32.0893340
  75.6896550  36.9396900  42.0351340  75.6932610  36.4986850  41.1855880
  76.5847670  37.2614230  42.1423160  71.5398930  36.8223390  40.9945550
  71.1998980  37.2998620  41.7512600  70.7776250  36.3688510  40.6346650
  75.7516700  37.9408980  35.0258100  75.8729520  37.8995460  35.9743920
  75.3665210  38.8033130  34.8704830  74.7638200  40.2510120  34.4241400
  74.1955100  39.8028370  33.7977310  75.4727200  40.6102900  33.8906550
  69.8407380  44.1522140  48.3008130  69.4562170  43.5115810  48.8991090
  70.1519570  44.8558260  48.8702860  75.9904520  40.9998680  43.7816750
  76.3574650  40.5257250  44.5278090  75.8009580  41.8740250  44.1225090
  68.8545010  35.7442370  39.9110220  68.5691930  35.3798040  40.7488840
  68.7923870  35.0122830  39.2973360  73.7803890  40.0407320  46.1000960
  73.4760960  40.9199300  46.3251320  74.7350350  40.1007110  46.1358400
  72.3085680  44.2468310  36.6967810  71.5347940  43.7065930  36.5366530
  73.0380310  43.7274920  36.3585570  72.3523080  43.9148690  40.3346620
  72.8701750  43.1116950  40.2803510  71.9007100  43.8527830  41.1763450
  69.8367620  40.8810060  47.2472320  69.4782560  41.5463910  47.8345660
  69.5422180  40.0493610  47.6184940  73.0380740  41.3394300  50.1311870
  72.7380880  41.4851480  49.2339690  73.8091980  40.7799590  50.0385260
  76.2083270  45.2628500  38.3789840  76.8954400  45.8097710  38.7597430
  75.4215690  45.8069230  38.4139450  68.3475670  40.8801320  33.8706920
  69.2170520  41.1626120  34.1542840  67.8565990  41.6937190  33.7555730
  75.5110480  42.2674530  37.9915200  75.9673260  43.0779780  38.2175390
  75.1598690  41.9497670  38.8233690  71.4122260  32.6112180  38.4637720
  71.2836890  32.6030080  39.4122640  70.5884280  32.9495270  38.1128730
  68.7146920  50.0928700  34.4368550  69.0744560  50.6918040  33.7825820
  68.5739260  50.6388590  35.2103580  68.4116190  34.3703300  47.9244420
  67.6974710  34.5700220  48.5297030  68.8311230  33.5942870  48.2959220
  68.6988780  48.3583560  48.9110950  68.8079900  47.4178300  48.7706340
  68.0469340  48.6238310  48.2624680  76.6901370  46.6299450  50.3109070
  76.3698240  45.9108690  50.8554760  76.0159730  47.3054520  50.3845130
  74.7315540  47.4759900  35.2542220  74.7225640  48.2089590  34.6386730
  73.8113900  47.2291480  35.3469180  70.3322180  42.6974790  35.9988980
  69.7250130  43.4373690  36.0084280  70.8071530  42.7874150  35.1727180
  75.2401030  38.0968500  37.8991310  74.5317180  38.5654840  38.3404920
  75.5245510  37.4390510  38.5336500  76.3593250  50.0574460  38.6115080
  76.6134750  50.0195850  37.6894450  75.4105730  49.9307790  38.6043330
  73.4436050  36.4053580  35.2742020  74.2926580  36.8423730  35.2082210
  73.0767320  36.7173840  36.1014080  72.3427470  42.6585940  33.7477550
  73.1090740  42.5467300  34.3102980  72.4202160  41.9623910  33.0954320
  71.0374230  40.0911010  34.4310440  71.1177820  39.1438520  34.5427840
  71.9293980  40.4217890  34.5371100  71.8388940  50.2406400  41.5344980
  72.5751420  49.6921860  41.8053550  72.2229860  51.1062410  41.3950970
  68.7234420  46.3079970  37.4086490  67.7974200  46.5501110  37.3991900
  69.1890850  47.1354230  37.2871240  70.8447220  49.4252470  50.7230560
  71.6459950  49.7464520  51.1365960  70.3299040  49.0648050  51.4450470
  74.9491250  49.4136710  33.3570550  75.7419860  49.7025540  32.9052340
  74.4295600  48.9828880  32.6783030  68.5645030  41.9125930  49.6666610
  69.0684050  41.3333210  50.2382840  67.8252450  42.1966160  50.2042980
  75.4668650  44.6340120  33.2212900  75.3619290  44.0192470  33.9474280
  75.2992870  44.1106010  32.4375910  75.6182970  43.3196920  49.2002130
  74.8528640  43.8881920  49.1156800  75.7998930  43.0273130  48.3070360
  70.5968110  40.0555520  50.5616680  70.6373450  39.7569390  51.4701910
  71.4513610  40.4563130  50.4024200  74.3746500  42.6551070  35.7220190
  74.7962920  42.4890940  36.5651580  74.4997340  41.8451300  35.2275330
  72.5373920  38.6347620  48.5291170  72.0070380  38.1438570  47.9014510
  73.2061990  39.0631820  47.9949100  73.0246220  35.6009990  48.6088460
  72.9303090  34.9830740  47.8839330  72.4443610  36.3276280  48.3818370
  75.7907660  34.1583230  45.6415850  75.3424960  34.1807490  44.7961400
  75.1572860  33.7602250  46.2386150  76.1967210  43.0537560  46.2628290
  76.6155320  43.8970290  46.0904530  75.2775840  43.1909600  46.0335070
  73.2705400  38.7284300  32.6678350  73.0694460  37.8651660  33.0291690
  73.0997450  38.6417660  31.7299950  74.0474630  49.3590570  47.3786020
  73.5095720  50.0836630  47.0594720  74.3008590  48.8820910  46.5883360
  75.2999880  37.3275090  48.9041950  75.8899570  37.0190940  49.5919770
  74.4820120  36.8554840  49.0601850  72.0688200  35.8284920  32.6556230
  72.3714100  35.8352350  31.7475380  72.8082790  35.4782780  33.1523890
  76.9036840  50.5941780  47.6372670  76.8295540  51.4976920  47.9445040
  76.0015680  50.2753680  47.6094740  75.2873130  34.7719540  33.6412430
  74.9395130  34.0943530  33.0614880  75.4885900  34.3109050  34.4555820
  71.0918330  45.1327340  33.4886030  71.5293200  45.6757010  34.1443610
  71.5766060  44.3074290  33.4982370  68.3064130  47.9216370  40.9406290
  68.6367140  47.0537430  40.7084930  68.7355130  48.1274890  41.7711250
  72.9026050  46.2525380  38.6008260  72.6021590  46.1290350  39.5012170
  72.7963540  45.3933970  38.1923990  68.7954340  48.7886960  43.6787920
  68.3585330  48.9687760  44.5112070  69.3632020  49.5461580  43.5369640
  68.6278770  41.3007190  40.0376800  67.9727610  41.0318830  39.3936500
  69.4656720  41.1911670  39.5878780  69.6654700  41.6859760  44.5780140
  70.0327740  41.5987160  45.4576160  69.0965520  40.9226310  44.4787000
  69.2170700  38.5968850  48.4838560  68.3226750  38.5635610  48.8232270
  69.7568250  38.7955640  49.2489810  67.8416850  38.5106120  35.9802130
  66.9380930  38.7736320  35.8053790  68.3257470  38.7817290  35.2002090
  70.3844060  37.5671660  33.8896510  71.0935760  37.1454880  33.4043790
  69.6684000  37.6346890  33.2579860  70.0318220  33.6210990  32.9299160
  70.7546350  34.1619930  33.2480380  70.3042740  33.3474410  32.0540700
  69.7210410  32.8717180  42.8321780  70.3686600  32.3214560  42.3916940
  70.1412250  33.1260330  43.6537590  69.4742410  33.0272850  45.5747100
  69.1257230  33.4836670  46.3405280  69.1430110  32.1329980  45.6569530
  71.0806780  46.1992450  49.7400290  71.0376410  45.8285360  50.6214750
  71.2117790  47.1370020  49.8802110  74.7812810  47.7552040  45.3410010
  74.5404170  48.0226600  44.4540530  75.7215450  47.9257770  45.3960870
  70.1463050  32.5549050  48.8497870  70.6946040  32.3737100  48.0863980
  70.2118360  31.7643160  49.3854180  70.9194810  49.1454700  46.8598070
  70.3255130  49.0139400  47.5988110  70.9118650  48.3092840  46.3940170
  70.5507040  46.5113080  45.8106110  69.8241100  45.8918370  45.7432060
  70.6116190  46.9053690  44.9404190  74.1552140  48.7258080  42.5955520
  74.6717160  48.1145440  42.0703780  74.8049520  49.2286860  43.0866530
  68.8337040  49.8287470  39.0202870  68.6659080  49.1958150  39.7184760
  67.9671550  50.0346870  38.6697060  69.4565060  33.6604250  36.5234730
  70.2144420  33.7733130  35.9498760  68.9942230  34.4973450  36.4778160
  75.9978870  35.7743520  39.5137040  75.1853380  35.4000410  39.1732920
  76.5020510  35.0188600  39.8158230  70.4399740  48.5220700  36.4653010
  69.9147360  48.9028730  35.7614970  70.3644320  49.1471470  37.1862720
  71.8290210  34.1868300  35.0636700  72.3582970  33.3998100  34.9344650
  72.4618530  34.8659490  35.2972230  74.0228050  33.9243440  38.1182090
  73.3930790  33.2230750  38.2852220  73.4833190  34.6847570  37.9015250
  74.1483610  33.2027420  50.5534580  73.8667880  33.7061020  49.7895400
  74.5303310  32.4049170  50.1876710  73.0392710  50.4703080  35.3402260
  73.7711530  50.1862360  34.7926150  73.2986380  50.2316360  36.2301640
  72.2007500  46.5867810  35.3448590  71.5716380  47.0552910  35.8934420
  72.3155330  45.7417030  35.7794780  71.8041090  42.7272300  24.2534820
  70.9725970  42.4721010  24.6531330  72.4122070  42.7983070  24.9892740
  71.7842350  46.7612390  24.4492840  72.0870390  45.8710130  24.2703060
  72.5285940  47.3182610  24.2215090  70.2133040  37.6874190  18.0377210
  69.3249740  38.0290160  17.9357090  70.4974230  37.4874510  17.1458040
  68.1766050  40.2879840  23.9216910  68.7482160  39.5202040  23.9220550
  68.1767590  40.5868600  23.0123520  69.4190920  35.6964200  25.7085840
  69.2393760  34.7989950  25.9888600  69.0171000  36.2436070  26.3832790
  72.3894430  36.2705690  19.0715590  72.4961180  37.1709420  19.3784350
  71.4786790  36.2223660  18.7810240  70.0377590  38.1924700  24.3168180
  70.7187700  38.4563070  24.9355580  69.7225640  37.3525570  24.6506190
  74.2302160  39.2392060  23.4040770  74.7380380  39.7373030  24.0445790
  74.7615400  38.4627260  23.2280130  72.5138260  33.8790620  27.6704190
  72.5156700  34.3963010  26.8650090  71.6842570  33.4020800  27.6474120
  73.7641110  43.5185800  25.8477690  73.4310490  44.1454720  26.4898760
  73.9407790  44.0447680  25.0679360  72.1953590  35.5900580  25.6774640
  72.5370400  36.4342630  25.3828510  71.2569400  35.7384320  25.7939980
  72.9760210  45.4866600  27.6626870  73.5934210  46.1617680  27.3811320
  72.1153330  45.8954580  27.5714370  68.2692550  44.6766460  16.5433720
  67.8920530  45.1653560  15.8118620  68.5265620  45.3491740  17.1740250
  75.8781480  33.0782850  22.0019230  76.1856460  32.5229740  21.2854730
  74.9482180  33.2127310  21.8192220  73.8718880  41.6696420  21.5199080
  73.4675880  40.9573670  21.0244980  73.9582000  41.3249660  22.4087120
  74.3400580  45.3563980  23.6838290  74.0428870  44.7509450  23.0046070
  75.2900400  45.3941290  23.5727650  72.5847500  38.4439630  25.2998120
  73.1362090  38.5534970  24.5251370  73.0991010  38.8177230  26.0153350
  73.4319010  45.0945670  30.3346090  72.5347540  45.3185640  30.5819490
  73.4571880  45.2180610  29.3857490  72.2590230  41.9658990  28.9103460
  72.1198000  42.8381790  29.2790860  71.3771590  41.6231800  28.7651400
  74.0570580  47.9080690  31.1188610  74.0286010  48.3123640  30.2517040
  73.8935550  46.9791050  30.9560210  70.5723510  40.5641400  19.0205730
  70.4521110  41.2903490  18.4087000  70.2624400  39.7944310  18.5433640
  68.2108880  43.7356540  24.8274370  68.2889300  43.8705310  23.8830090
  68.8250560  43.0272430  25.0202490  69.4556510  45.4356730  21.2380550
  69.0484590  45.5771320  20.3834150  70.3469520  45.1516890  21.0351760
  73.7278170  49.6502510  19.3503220  73.5520650  48.7338050  19.1371020
  72.8733910  50.0089800  19.5901020  68.2668400  44.7770710  27.3668830
  68.4299440  44.3076070  26.5488200  68.7320850  44.2694270  28.0317670
  73.0387170  33.9076470  22.4029400  72.5955320  34.6886010  22.0713920
  73.5972160  34.2306360  23.1100340  76.1545990  33.5287170  17.2835230
  75.5300170  33.5247040  18.0088540  76.0676110  32.6618130  16.8871200
  75.0763070  34.4523800  24.2619000  75.3735400  35.3586630  24.1811020
  75.6248630  33.9642580  23.6478570  72.8301390  39.0310040  20.1310650
  72.6042310  38.8147210  21.0357270  72.0493920  39.4638500  19.7856620
  75.2700600  39.9295620  30.7970920  75.1744200  38.9890350  30.6471320
  76.1132580  40.1510690  30.4018990  70.4011140  36.3409290  28.9504700
  70.0074530  37.1884500  29.1577480  69.7129540  35.7035660  29.1413340
  67.7028190  34.2637750  22.9834780  67.4141240  34.8340610  23.6959760
  68.4473950  33.7842200  23.3466010  67.8898420  38.2057870  14.1937500
  67.8073090  39.1488630  14.3352490  67.5381480  38.0632780  13.3149850
  75.6896550  36.9396900  23.2607850  75.6932610  36.4986850  22.4112390
  76.5847670  37.2614230  23.3679670  71.5398930  36.8223390  22.2202060
  71.1998980  37.2998620  22.9769110  70.7776250  36.3688510  21.8603160
  75.7516700  37.9408980  16.2514610  75.8729520  37.8995460  17.2000430
  75.3665210  38.8033130  16.0961340  74.7638200  40.2510120  15.6497910
  74.1955100  39.8028370  15.0233820  75.4727200  40.6102900  15.1163060
  69.8407380  44.1522140  29.5264640  69.4562170  43.5115810  30.1247600
  70.1519570  44.8558260  30.0959370  75.9904520  40.9998680  25.0073260
  76.3574650  40.5257250  25.7534600  75.8009580  41.8740250  25.3481600
  68.8545010  35.7442370  21.1366730  68.5691930  35.3798040  21.9745350
  68.7923870  35.0122830  20.5229870  73.7803890  40.0407320  27.3257470
  73.4760960  40.9199300  27.5507830  74.7350350  40.1007110  27.3614910
  72.3085680  44.2468310  17.9224320  71.5347940  43.7065930  17.7623040
  73.0380310  43.7274920  17.5842080  72.3523080  43.9148690  21.5603130
  72.8701750  43.1116950  21.5060020  71.9007100  43.8527830  22.4019960
  69.8367620  40.8810060  28.4728830  69.4782560  41.5463910  29.0602170
  69.5422180  40.0493610  28.8441450  73.0380740  41.3394300  31.3568380
  72.7380880  41.4851480  30.4596200  73.8091980  40.7799590  31.2641770
  76.2083270  45.2628500  19.6046350  76.8954400  45.8097710  19.9853940
  75.4215690  45.8069230  19.6395960  68.3475670  40.8801320  15.0963430
  69.2170520  41.1626120  15.3799350  67.8565990  41.6937190  14.9812240
  75.5110480  42.2674530  19.2171710  75.9673260  43.0779780  19.4431900
  75.1598690  41.9497670  20.0490200  71.4122260  32.6112180  19.6894230
  71.2836890  32.6030080  20.6379150  70.5884280  32.9495270  19.3385240
  68.7146920  50.0928700  15.6625060  69.0744560  50.6918040  15.0082330
  68.5739260  50.6388590  16.4360090  68.4116190  34.3703300  29.1500930
  67.6974710  34.5700220  29.7553540  68.8311230  33.5942870  29.5215730
  68.6988780  48.3583560  30.1367460  68.8079900  47.4178300  29.9962850
  68.0469340  48.6238310  29.4881190  76.6901370  46.6299450  31.5365580
  76.3698240  45.9108690  32.0811270  76.0159730  47.3054520  31.6101640
  74.7315540  47.4759900  16.4798730  74.7225640  48.2089590  15.8643240
  73.8113900  47.2291480  16.5725690  70.3322180  42.6974790  17.2245490
  69.7250130  43.4373690  17.2340790  70.8071530  42.7874150  16.3983690
  75.2401030  38.0968500  19.1247820  74.5317180  38.5654840  19.5661430
  75.5245510  37.4390510  19.7593010  76.3593250  50.0574460  19.8371590
  76.6134750  50.0195850  18.9150960  75.4105730  49.9307790  19.8299840
  73.4436050  36.4053580  16.4998530  74.2926580  36.8423730  16.4338720
  73.0767320  36.7173840  17.3270590  72.3427470  42.6585940  14.9734060
  73.1090740  42.5467300  15.5359490  72.4202160  41.9623910  14.3210830
  71.0374230  40.0911010  15.6566950  71.1177820  39.1438520  15.7684350
  71.9293980  40.4217890  15.7627610  71.8388940  50.2406400  22.7601490
  72.5751420  49.6921860  23.0310060  72.2229860  51.1062410  22.6207480
  68.7234420  46.3079970  18.6343000  67.7974200  46.5501110  18.6248410
  69.1890850  47.1354230  18.5127750  70.8447220  49.4252470  31.9487070
  71.6459950  49.7464520  32.3622470  70.3299040  49.0648050  32.6706980
  74.9491250  49.4136710  14.5827060  75.7419860  49.7025540  14.1308850
  74.4295600  48.9828880  13.9039540  68.5645030  41.9125930  30.8923120
  69.0684050  41.3333210  31.4639350  67.8252450  42.1966160  31.4299490
  75.4668650  44.6340120  14.4469410  75.3619290  44.0192470  15.1730790
  75.2992870  44.1106010  13.6632420  75.6182970  43.3196920  30.4258640
  74.8528640  43.8881920  30.3413310  75.7998930  43.0273130  29.5326870
  70.5968110  40.0555520  31.7873190  70.6373450  39.7569390  32.6958420
  71.4513610  40.4563130  31.6280710  74.3746500  42.6551070  16.9476700
  74.7962920  42.4890940  17.7908090  74.4997340  41.8451300  16.4531840
  72.5373920  38.6347620  29.7547680  72.0070380  38.1438570  29.1271020
  73.2061990  39.0631820  29.2205610  73.0246220  35.6009990  29.8344970
  72.9303090  34.9830740  29.1095840  72.4443610  36.3276280  29.6074880
  75.7907660  34.1583230  26.8672360  75.3424960  34.1807490  26.0217910
  75.1572860  33.7602250  27.4642660  76.1967210  43.0537560  27.4884800
  76.6155320  43.8970290  27.3161040  75.2775840  43.1909600  27.2591580
  73.2705400  38.7284300  13.8934860  73.0694460  37.8651660  14.2548200
  73.0997450  38.6417660  12.9556460  74.0474630  49.3590570  28.6042530
  73.5095720  50.0836630  28.2851230  74.3008590  48.8820910  27.8139870
  75.2999880  37.3275090  30.1298460  75.8899570  37.0190940  30.8176280
  74.4820120  36.8554840  30.2858360  72.0688200  35.8284920  13.8812740
  72.3714100  35.8352350  12.9731890  72.8082790  35.4782780  14.3780400
  76.9036840  50.5941780  28.8629180  76.8295540  51.4976920  29.1701550
  76.0015680  50.2753680  28.8351250  75.2873130  34.7719540  14.8668940
  74.9395130  34.0943530  14.2871390  75.4885900  34.3109050  15.6812330
  71.0918330  45.1327340  14.7142540  71.5293200  45.6757010  15.3700120
  71.5766060  44.3074290  14.7238880  68.3064130  47.9216370  22.1662800
  68.6367140  47.0537430  21.9341440  68.7355130  48.1274890  22.9967760
  72.9026050  46.2525380  19.8264770  72.6021590  46.1290350  20.7268680
  72.7963540  45.3933970  19.4180500  68.7954340  48.7886960  24.9044430
  68.3585330  48.9687760  25.7368580  69.3632020  49.5461580  24.7626150
  68.6278770  41.3007190  21.2633310  67.9727610  41.0318830  20.6193010
  69.4656720  41.1911670  20.8135290  69.6654700  41.6859760  25.8036650
  70.0327740  41.5987160  26.6832670  69.0965520  40.9226310  25.7043510
  69.2170700  38.5968850  29.7095070  68.3226750  38.5635610  30.0488780
  69.7568250  38.7955640  30.4746320  67.8416850  38.5106120  17.2058640
  66.9380930  38.7736320  17.0310300  68.3257470  38.7817290  16.4258600
  70.3844060  37.5671660  15.1153020  71.0935760  37.1454880  14.6300300
  69.6684000  37.6346890  14.4836370  70.0318220  33.6210990  14.1555670
  70.7546350  34.1619930  14.4736890  70.3042740  33.3474410  13.2797210
  69.7210410  32.8717180  24.0578290  70.3686600  32.3214560  23.6173450
  70.1412250  33.1260330  24.8794100  69.4742410  33.0272850  26.8003610
  69.1257230  33.4836670  27.5661790  69.1430110  32.1329980  26.8826040
  71.0806780  46.1992450  30.9656800  71.0376410  45.8285360  31.8471260
  71.2117790  47.1370020  31.1058620  74.7812810  47.7552040  26.5666520
  74.5404170  48.0226600  25.6797040  75.7215450  47.9257770  26.6217380
  70.1463050  32.5549050  30.0754380  70.6946040  32.3737100  29.3120490
  70.2118360  31.7643160  30.6110690  70.9194810  49.1454700  28.0854580
  70.3255130  49.0139400  28.8244620  70.9118650  48.3092840  27.6196680
  70.5507040  46.5113080  27.0362620  69.8241100  45.8918370  26.9688570
  70.6116190  46.9053690  26.1660700  74.1552140  48.7258080  23.8212030
  74.6717160  48.1145440  23.2960290  74.8049520  49.2286860  24.3123040
  68.8337040  49.8287470  20.2459380  68.6659080  49.1958150  20.9441270
  67.9671550  50.0346870  19.8953570  69.4565060  33.6604250  17.7491240
  70.2144420  33.7733130  17.1755270  68.9942230  34.4973450  17.7034670
  75.9978870  35.7743520  20.7393550  75.1853380  35.4000410  20.3989430
  76.5020510  35.0188600  21.0414740  70.4399740  48.5220700  17.6909520
  69.9147360  48.9028730  16.9871480  70.3644320  49.1471470  18.4119230
  71.8290210  34.1868300  16.2893210  72.3582970  33.3998100  16.1601160
  72.4618530  34.8659490  16.5228740  74.0228050  33.9243440  19.3438600
  73.3930790  33.2230750  19.5108730  73.4833190  34.6847570  19.1271760
  74.1483610  33.2027420  31.7791090  73.8667880  33.7061020  31.0151910
  74.5303310  32.4049170  31.4133220  73.0392710  50.4703080  16.5658770
  73.7711530  50.1862360  16.0182660  73.2986380  50.2316360  17.4558150
  72.2007500  46.5867810  16.5705100  71.5716380  47.0552910  17.1190930
  72.3155330  45.7417030  17.0051290  71.8041090  42.7272300   5.4791330
  70.9725970  42.4721010   5.8787840  72.4122070  42.7983070   6.2149250
  71.7842350  46.7612390   5.6749350  72.0870390  45.8710130   5.4959570
  72.5285940  47.3182610   5.4471600  68.1766050  40.2879840   5.1473420
  68.7482160  39.5202040   5.1477060  68.1767590  40.5868600   4.2380030
  69.4190920  35.6964200   6.9342350  69.2393760  34.7989950   7.2145110
  69.0171000  36.2436070   7.6089300  70.0377590  38.1924700   5.5424690
  70.7187700  38.4563070   6.1612090  69.7225640  37.3525570   5.8762700
  74.2302160  39.2392060   4.6297280  74.7380380  39.7373030   5.2702300
  74.7615400  38.4627260   4.4536640  72.5138260  33.8790620   8.8960700
  72.5156700  34.3963010   8.0906600  71.6842570  33.4020800   8.8730630
  73.7641110  43.5185800   7.0734200  73.4310490  44.1454720   7.7155270
  73.9407790  44.0447680   6.2935870  72.1953590  35.5900580   6.9031150
  72.5370400  36.4342630   6.6085020  71.2569400  35.7384320   7.0196490
  72.9760210  45.4866600   8.8883380  73.5934210  46.1617680   8.6067830
  72.1153330  45.8954580   8.7970880  75.8781480  33.0782850   3.2275740
  76.1856460  32.5229740   2.5111240  74.9482180  33.2127310   3.0448730
  73.8718880  41.6696420   2.7455590  73.4675880  40.9573670   2.2501490
  73.9582000  41.3249660   3.6343630  74.3400580  45.3563980   4.9094800
  74.0428870  44.7509450   4.2302580  75.2900400  45.3941290   4.7984160
  72.5847500  38.4439630   6.5254630  73.1362090  38.5534970   5.7507880
  73.0991010  38.8177230   7.2409860  73.4319010  45.0945670  11.5602600
  72.5347540  45.3185640  11.8076000  73.4571880  45.2180610  10.6114000
  72.2590230  41.9658990  10.1359970  72.1198000  42.8381790  10.5047370
  71.3771590  41.6231800   9.9907910  74.0570580  47.9080690  12.3445120
  74.0286010  48.3123640  11.4773550  73.8935550  46.9791050  12.1816720
  68.2108880  43.7356540   6.0530880  68.2889300  43.8705310   5.1086600
  68.8250560  43.0272430   6.2459000  68.2668400  44.7770710   8.5925340
  68.4299440  44.3076070   7.7744710  68.7320850  44.2694270   9.2574180
  73.0387170  33.9076470   3.6285910  72.5955320  34.6886010   3.2970430
  73.5972160  34.2306360   4.3356850  75.0763070  34.4523800   5.4875510
  75.3735400  35.3586630   5.4067530  75.6248630  33.9642580   4.8735080
  75.2700600  39.9295620  12.0227430  75.1744200  38.9890350  11.8727830
  76.1132580  40.1510690  11.6275500  70.4011140  36.3409290  10.1761210
  70.0074530  37.1884500  10.3833990  69.7129540  35.7035660  10.3669850
  67.7028190  34.2637750   4.2091290  67.4141240  34.8340610   4.9216270
  68.4473950  33.7842200   4.5722520  75.6896550  36.9396900   4.4864360
  75.6932610  36.4986850   3.6368900  76.5847670  37.2614230   4.5936180
  71.5398930  36.8223390   3.4458570  71.1998980  37.2998620   4.2025620
  70.7776250  36.3688510   3.0859670  69.8407380  44.1522140  10.7521150
  69.4562170  43.5115810  11.3504110  70.1519570  44.8558260  11.3215880
  75.9904520  40.9998680   6.2329770  76.3574650  40.5257250   6.9791110
  75.8009580  41.8740250   6.5738110  68.8545010  35.7442370   2.3623240
  68.5691930  35.3798040   3.2001860  68.7923870  35.0122830   1.7486380
  73.7803890  40.0407320   8.5513980  73.4760960  40.9199300   8.7764340
  74.7350350  40.1007110   8.5871420  72.3523080  43.9148690   2.7859640
  72.8701750  43.1116950   2.7316530  71.9007100  43.8527830   3.6276470
  69.8367620  40.8810060   9.6985340  69.4782560  41.5463910  10.2858680
  69.5422180  40.0493610  10.0697960  73.0380740  41.3394300  12.5824890
  72.7380880  41.4851480  11.6852710  73.8091980  40.7799590  12.4898280
  68.4116190  34.3703300  10.3757440  67.6974710  34.5700220  10.9810050
  68.8311230  33.5942870  10.7472240  68.6988780  48.3583560  11.3623970
  68.8079900  47.4178300  11.2219360  68.0469340  48.6238310  10.7137700
  76.6901370  46.6299450  12.7622090  76.3698240  45.9108690  13.3067780
  76.0159730  47.3054520  12.8358150  71.8388940  50.2406400   3.9858000
  72.5751420  49.6921860   4.2566570  72.2229860  51.1062410   3.8463990
  70.8447220  49.4252470  13.1743580  71.6459950  49.7464520  13.5878980
  70.3299040  49.0648050  13.8963490  68.5645030  41.9125930  12.1179630
  69.0684050  41.3333210  12.6895860  67.8252450  42.1966160  12.6556000
  75.6182970  43.3196920  11.6515150  74.8528640  43.8881920  11.5669820
  75.7998930  43.0273130  10.7583380  70.5968110  40.0555520  13.0129700
  70.6373450  39.7569390  13.9214930  71.4513610  40.4563130  12.8537220
  72.5373920  38.6347620  10.9804190  72.0070380  38.1438570  10.3527530
  73.2061990  39.0631820  10.4462120  73.0246220  35.6009990  11.0601480
  72.9303090  34.9830740  10.3352350  72.4443610  36.3276280  10.8331390
  75.7907660  34.1583230   8.0928870  75.3424960  34.1807490   7.2474420
  75.1572860  33.7602250   8.6899170  76.1967210  43.0537560   8.7141310
  76.6155320  43.8970290   8.5417550  75.2775840  43.1909600   8.4848090
  74.0474630  49.3590570   9.8299040  73.5095720  50.0836630   9.5107740
  74.3008590  48.8820910   9.0396380  75.2999880  37.3275090  11.3554970
  75.8899570  37.0190940  12.0432790  74.4820120  36.8554840  11.5114870
  76.9036840  50.5941780  10.0885690  76.8295540  51.4976920  10.3958060
  76.0015680  50.2753680  10.0607760  68.3064130  47.9216370   3.3919310
  68.6367140  47.0537430   3.1597950  68.7355130  48.1274890   4.2224270
  68.7954340  48.7886960   6.1300940  68.3585330  48.9687760   6.9625090
  69.3632020  49.5461580   5.9882660  68.6278770  41.3007190   2.4889820
  67.9727610  41.0318830   1.8449520  69.4656720  41.1911670   2.0391800
  69.6654700  41.6859760   7.0293160  70.0327740  41.5987160   7.9089180
  69.0965520  40.9226310   6.9300020  69.2170700  38.5968850  10.9351580
  68.3226750  38.5635610  11.2745290  69.7568250  38.7955640  11.7002830
  69.7210410  32.8717180   5.2834800  70.3686600  32.3214560   4.8429960
  70.1412250  33.1260330   6.1050610  69.4742410  33.0272850   8.0260120
  69.1257230  33.4836670   8.7918300  69.1430110  32.1329980   8.1082550
  71.0806780  46.1992450  12.1913310  71.0376410  45.8285360  13.0727770
  71.2117790  47.1370020  12.3315130  74.7812810  47.7552040   7.7923030
  74.5404170  48.0226600   6.9053550  75.7215450  47.9257770   7.8473890
  70.1463050  32.5549050  11.3010890  70.6946040  32.3737100  10.5377000
  70.2118360  31.7643160  11.8367200  70.9194810  49.1454700   9.3111090
  70.3255130  49.0139400  10.0501130  70.9118650  48.3092840   8.8453190
  70.5507040  46.5113080   8.2619130  69.8241100  45.8918370   8.1945080
  70.6116190  46.9053690   7.3917210  74.1552140  48.7258080   5.0468540
  74.6717160  48.1145440   4.5216800  74.8049520  49.2286860   5.5379550
  74.1483610  33.2027420  13.0047600  73.8667880  33.7061020  12.2408420
  74.5303310  32.4049170  12.6389730  71.8041090  23.9528810  80.5765290
  70.9725970  23.6977520  80.9761800  72.4122070  24.0239580  81.3123210
  71.7842350  27.9868900  80.7723310  72.0870390  27.0966640  80.5933530
  72.5285940  28.5439120  80.5445560  70.2133040  18.9130700  74.3607680
  69.3249740  19.2546670  74.2587560  70.4974230  18.7131020  73.4688510
  68.1766050  21.5136350  80.2447380  68.7482160  20.7458550  80.2451020
  68.1767590  21.8125110  79.3353990  72.3894430  17.4962200  75.3946060
  72.4961180  18.3965930  75.7014820  71.4786790  17.4480170  75.1040710
  70.0377590  19.4181210  80.6398650  70.7187700  19.6819580  81.2586050
  69.7225640  18.5782080  80.9736660  74.2302160  20.4648570  79.7271240
  74.7380380  20.9629540  80.3676260  74.7615400  19.6883770  79.5510600
  68.2692550  25.9022970  72.8664190  67.8920530  26.3910070  72.1349090
  68.5265620  26.5748250  73.4970720  75.8781480  14.3039360  78.3249700
  76.1856460  13.7486250  77.6085200  74.9482180  14.4383820  78.1422690
  73.8718880  22.8952930  77.8429550  73.4675880  22.1830180  77.3475450
  73.9582000  22.5506170  78.7317590  74.3400580  26.5820490  80.0068760
  74.0428870  25.9765960  79.3276540  75.2900400  26.6197800  79.8958120
  70.5723510  21.7897910  75.3436200  70.4521110  22.5160000  74.7317470
  70.2624400  21.0200820  74.8664110  68.2108880  24.9613050  81.1504840
  68.2889300  25.0961820  80.2060560  68.8250560  24.2528940  81.3432960
  69.4556510  26.6613240  77.5611020  69.0484590  26.8027830  76.7064620
  70.3469520  26.3773400  77.3582230  73.7278170  30.8759020  75.6733690
  73.5520650  29.9594560  75.4601490  72.8733910  31.2346310  75.9131490
  73.0387170  15.1332980  78.7259870  72.5955320  15.9142520  78.3944390
  73.5972160  15.4562870  79.4330810  76.1545990  14.7543680  73.6065700
  75.5300170  14.7503550  74.3319010  76.0676110  13.8874640  73.2101670
  75.0763070  15.6780310  80.5849470  75.3735400  16.5843140  80.5041490
  75.6248630  15.1899090  79.9709040  72.8301390  20.2566550  76.4541120
  72.6042310  20.0403720  77.3587740  72.0493920  20.6895010  76.1087090
  67.7028190  15.4894260  79.3065250  67.4141240  16.0597120  80.0190230
  68.4473950  15.0098710  79.6696480  67.8898420  19.4314380  70.5167970
  67.8073090  20.3745140  70.6582960  67.5381480  19.2889290  69.6380320
  75.6896550  18.1653410  79.5838320  75.6932610  17.7243360  78.7342860
  76.5847670  18.4870740  79.6910140  71.5398930  18.0479900  78.5432530
  71.1998980  18.5255130  79.2999580  70.7776250  17.5945020  78.1833630
  75.7516700  19.1665490  72.5745080  75.8729520  19.1251970  73.5230900
  75.3665210  20.0289640  72.4191810  74.7638200  21.4766630  71.9728380
  74.1955100  21.0284880  71.3464290  75.4727200  21.8359410  71.4393530
  68.8545010  16.9698880  77.4597200  68.5691930  16.6054550  78.2975820
  68.7923870  16.2379340  76.8460340  72.3085680  25.4724820  74.2454790
  71.5347940  24.9322440  74.0853510  73.0380310  24.9531430  73.9072550
  72.3523080  25.1405200  77.8833600  72.8701750  24.3373460  77.8290490
  71.9007100  25.0784340  78.7250430  76.2083270  26.4885010  75.9276820
  76.8954400  27.0354220  76.3084410  75.4215690  27.0325740  75.9626430
  68.3475670  22.1057830  71.4193900  69.2170520  22.3882630  71.7029820
  67.8565990  22.9193700  71.3042710  75.5110480  23.4931040  75.5402180
  75.9673260  24.3036290  75.7662370  75.1598690  23.1754180  76.3720670
  71.4122260  13.8368690  76.0124700  71.2836890  13.8286590  76.9609620
  70.5884280  14.1751780  75.6615710  68.7146920  31.3185210  71.9855530
  69.0744560  31.9174550  71.3312800  68.5739260  31.8645100  72.7590560
  74.7315540  28.7016410  72.8029200  74.7225640  29.4346100  72.1873710
  73.8113900  28.4547990  72.8956160  70.3322180  23.9231300  73.5475960
  69.7250130  24.6630200  73.5571260  70.8071530  24.0130660  72.7214160
  75.2401030  19.3225010  75.4478290  74.5317180  19.7911350  75.8891900
  75.5245510  18.6647020  76.0823480  76.3593250  31.2830970  76.1602060
  76.6134750  31.2452360  75.2381430  75.4105730  31.1564300  76.1530310
  73.4436050  17.6310090  72.8229000  74.2926580  18.0680240  72.7569190
  73.0767320  17.9430350  73.6501060  72.3427470  23.8842450  71.2964530
  73.1090740  23.7723810  71.8589960  72.4202160  23.1880420  70.6441300
  71.0374230  21.3167520  71.9797420  71.1177820  20.3695030  72.0914820
  71.9293980  21.6474400  72.0858080  71.8388940  31.4662910  79.0831960
  72.5751420  30.9178370  79.3540530  72.2229860  32.3318920  78.9437950
  68.7234420  27.5336480  74.9573470  67.7974200  27.7757620  74.9478880
  69.1890850  28.3610740  74.8358220  74.9491250  30.6393220  70.9057530
  75.7419860  30.9282050  70.4539320  74.4295600  30.2085390  70.2270010
  75.4668650  25.8596630  70.7699880  75.3619290  25.2448980  71.4961260
  75.2992870  25.3362520  69.9862890  74.3746500  23.8807580  73.2707170
  74.7962920  23.7147450  74.1138560  74.4997340  23.0707810  72.7762310
  73.2705400  19.9540810  70.2165330  73.0694460  19.0908170  70.5778670
  73.0997450  19.8674170  69.2786930  72.0688200  17.0541430  70.2043210
  72.3714100  17.0608860  69.2962360  72.8082790  16.7039290  70.7010870
  75.2873130  15.9976050  71.1899410  74.9395130  15.3200040  70.6101860
  75.4885900  15.5365560  72.0042800  71.0918330  26.3583850  71.0373010
  71.5293200  26.9013520  71.6930590  71.5766060  25.5330800  71.0469350
  68.3064130  29.1472880  78.4893270  68.6367140  28.2793940  78.2571910
  68.7355130  29.3531400  79.3198230  72.9026050  27.4781890  76.1495240
  72.6021590  27.3546860  77.0499150  72.7963540  26.6190480  75.7410970
  68.6278770  22.5263700  77.5863780  67.9727610  22.2575340  76.9423480
  69.4656720  22.4168180  77.1365760  67.8416850  19.7362630  73.5289110
  66.9380930  19.9992830  73.3540770  68.3257470  20.0073800  72.7489070
  70.3844060  18.7928170  71.4383490  71.0935760  18.3711390  70.9530770
  69.6684000  18.8603400  70.8066840  70.0318220  14.8467500  70.4786140
  70.7546350  15.3876440  70.7967360  70.3042740  14.5730920  69.6027680
  69.7210410  14.0973690  80.3808760  70.3686600  13.5471070  79.9403920
  70.1412250  14.3516840  81.2024570  74.1552140  29.9514590  80.1442500
  74.6717160  29.3401950  79.6190760  74.8049520  30.4543370  80.6353510
  68.8337040  31.0543980  76.5689850  68.6659080  30.4214660  77.2671740
  67.9671550  31.2603380  76.2184040  69.4565060  14.8860760  74.0721710
  70.2144420  14.9989640  73.4985740  68.9942230  15.7229960  74.0265140
  75.9978870  17.0000030  77.0624020  75.1853380  16.6256920  76.7219900
  76.5020510  16.2445110  77.3645210  70.4399740  29.7477210  74.0139990
  69.9147360  30.1285240  73.3101950  70.3644320  30.3727980  74.7349700
  71.8290210  15.4124810  72.6123680  72.3582970  14.6254610  72.4831630
  72.4618530  16.0916000  72.8459210  74.0228050  15.1499950  75.6669070
  73.3930790  14.4487260  75.8339200  73.4833190  15.9104080  75.4502230
  73.0392710  31.6959590  72.8889240  73.7711530  31.4118870  72.3413130
  73.2986380  31.4572870  73.7788620  72.2007500  27.8124320  72.8935570
  71.5716380  28.2809420  73.4421400  72.3155330  26.9673540  73.3281760
  71.8041090  23.9528810  61.8021800  70.9725970  23.6977520  62.2018310
  72.4122070  24.0239580  62.5379720  71.7842350  27.9868900  61.9979820
  72.0870390  27.0966640  61.8190040  72.5285940  28.5439120  61.7702070
  70.2133040  18.9130700  55.5864190  69.3249740  19.2546670  55.4844070
  70.4974230  18.7131020  54.6945020  68.1766050  21.5136350  61.4703890
  68.7482160  20.7458550  61.4707530  68.1767590  21.8125110  60.5610500
  69.4190920  16.9220710  63.2572820  69.2393760  16.0246460  63.5375580
  69.0171000  17.4692580  63.9319770  72.3894430  17.4962200  56.6202570
  72.4961180  18.3965930  56.9271330  71.4786790  17.4480170  56.3297220
  70.0377590  19.4181210  61.8655160  70.7187700  19.6819580  62.4842560
  69.7225640  18.5782080  62.1993170  74.2302160  20.4648570  60.9527750
  74.7380380  20.9629540  61.5932770  74.7615400  19.6883770  60.7767110
  72.5138260  15.1047130  65.2191170  72.5156700  15.6219520  64.4137070
  71.6842570  14.6277310  65.1961100  73.7641110  24.7442310  63.3964670
  73.4310490  25.3711230  64.0385740  73.9407790  25.2704190  62.6166340
  72.1953590  16.8157090  63.2261620  72.5370400  17.6599140  62.9315490
  71.2569400  16.9640830  63.3426960  72.9760210  26.7123110  65.2113850
  73.5934210  27.3874190  64.9298300  72.1153330  27.1211090  65.1201350
  68.2692550  25.9022970  54.0920700  67.8920530  26.3910070  53.3605600
  68.5265620  26.5748250  54.7227230  75.8781480  14.3039360  59.5506210
  76.1856460  13.7486250  58.8341710  74.9482180  14.4383820  59.3679200
  73.8718880  22.8952930  59.0686060  73.4675880  22.1830180  58.5731960
  73.9582000  22.5506170  59.9574100  74.3400580  26.5820490  61.2325270
  74.0428870  25.9765960  60.5533050  75.2900400  26.6197800  61.1214630
  72.5847500  19.6696140  62.8485100  73.1362090  19.7791480  62.0738350
  73.0991010  20.0433740  63.5640330  73.4319010  26.3202180  67.8833070
  72.5347540  26.5442150  68.1306470  73.4571880  26.4437120  66.9344470
  72.2590230  23.1915500  66.4590440  72.1198000  24.0638300  66.8277840
  71.3771590  22.8488310  66.3138380  74.0570580  29.1337200  68.6675590
  74.0286010  29.5380150  67.8004020  73.8935550  28.2047560  68.5047190
  70.5723510  21.7897910  56.5692710  70.4521110  22.5160000  55.9573980
  70.2624400  21.0200820  56.0920620  68.2108880  24.9613050  62.3761350
  68.2889300  25.0961820  61.4317070  68.8250560  24.2528940  62.5689470
  69.4556510  26.6613240  58.7867530  69.0484590  26.8027830  57.9321130
  70.3469520  26.3773400  58.5838740  73.7278170  30.8759020  56.8990200
  73.5520650  29.9594560  56.6858000  72.8733910  31.2346310  57.1388000
  68.2668400  26.0027220  64.9155810  68.4299440  25.5332580  64.0975180
  68.7320850  25.4950780  65.5804650  73.0387170  15.1332980  59.9516380
  72.5955320  15.9142520  59.6200900  73.5972160  15.4562870  60.6587320
  76.1545990  14.7543680  54.8322210  75.5300170  14.7503550  55.5575520
  76.0676110  13.8874640  54.4358180  75.0763070  15.6780310  61.8105980
  75.3735400  16.5843140  61.7298000  75.6248630  15.1899090  61.1965550
  72.8301390  20.2566550  57.6797630  72.6042310  20.0403720  58.5844250
  72.0493920  20.6895010  57.3343600  75.2700600  21.1552130  68.3457900
  75.1744200  20.2146860  68.1958300  76.1132580  21.3767200  67.9505970
  70.4011140  17.5665800  66.4991680  70.0074530  18.4141010  66.7064460
  69.7129540  16.9292170  66.6900320  67.7028190  15.4894260  60.5321760
  67.4141240  16.0597120  61.2446740  68.4473950  15.0098710  60.8952990
  67.8898420  19.4314380  51.7424480  67.8073090  20.3745140  51.8839470
  67.5381480  19.2889290  50.8636830  75.6896550  18.1653410  60.8094830
  75.6932610  17.7243360  59.9599370  76.5847670  18.4870740  60.9166650
  71.5398930  18.0479900  59.7689040  71.1998980  18.5255130  60.5256090
  70.7776250  17.5945020  59.4090140  75.7516700  19.1665490  53.8001590
  75.8729520  19.1251970  54.7487410  75.3665210  20.0289640  53.6448320
  74.7638200  21.4766630  53.1984890  74.1955100  21.0284880  52.5720800
  75.4727200  21.8359410  52.6650040  69.8407380  25.3778650  67.0751620
  69.4562170  24.7372320  67.6734580  70.1519570  26.0814770  67.6446350
  75.9904520  22.2255190  62.5560240  76.3574650  21.7513760  63.3021580
  75.8009580  23.0996760  62.8968580  68.8545010  16.9698880  58.6853710
  68.5691930  16.6054550  59.5232330  68.7923870  16.2379340  58.0716850
  73.7803890  21.2663830  64.8744450  73.4760960  22.1455810  65.0994810
  74.7350350  21.3263620  64.9101890  72.3085680  25.4724820  55.4711300
  71.5347940  24.9322440  55.3110020  73.0380310  24.9531430  55.1329060
  72.3523080  25.1405200  59.1090110  72.8701750  24.3373460  59.0547000
  71.9007100  25.0784340  59.9506940  69.8367620  22.1066570  66.0215810
  69.4782560  22.7720420  66.6089150  69.5422180  21.2750120  66.3928430
  73.0380740  22.5650810  68.9055360  72.7380880  22.7107990  68.0083180
  73.8091980  22.0056100  68.8128750  76.2083270  26.4885010  57.1533330
  76.8954400  27.0354220  57.5340920  75.4215690  27.0325740  57.1882940
  68.3475670  22.1057830  52.6450410  69.2170520  22.3882630  52.9286330
  67.8565990  22.9193700  52.5299220  75.5110480  23.4931040  56.7658690
  75.9673260  24.3036290  56.9918880  75.1598690  23.1754180  57.5977180
  71.4122260  13.8368690  57.2381210  71.2836890  13.8286590  58.1866130
  70.5884280  14.1751780  56.8872220  68.7146920  31.3185210  53.2112040
  69.0744560  31.9174550  52.5569310  68.5739260  31.8645100  53.9847070
  68.4116190  15.5959810  66.6987910  67.6974710  15.7956730  67.3040520
  68.8311230  14.8199380  67.0702710  68.6988780  29.5840070  67.6854440
  68.8079900  28.6434810  67.5449830  68.0469340  29.8494820  67.0368170
  76.6901370  27.8555960  69.0852560  76.3698240  27.1365200  69.6298250
  76.0159730  28.5311030  69.1588620  74.7315540  28.7016410  54.0285710
  74.7225640  29.4346100  53.4130220  73.8113900  28.4547990  54.1212670
  70.3322180  23.9231300  54.7732470  69.7250130  24.6630200  54.7827770
  70.8071530  24.0130660  53.9470670  75.2401030  19.3225010  56.6734800
  74.5317180  19.7911350  57.1148410  75.5245510  18.6647020  57.3079990
  76.3593250  31.2830970  57.3858570  76.6134750  31.2452360  56.4637940
  75.4105730  31.1564300  57.3786820  73.4436050  17.6310090  54.0485510
  74.2926580  18.0680240  53.9825700  73.0767320  17.9430350  54.8757570
  72.3427470  23.8842450  52.5221040  73.1090740  23.7723810  53.0846470
  72.4202160  23.1880420  51.8697810  71.0374230  21.3167520  53.2053930
  71.1177820  20.3695030  53.3171330  71.9293980  21.6474400  53.3114590
  71.8388940  31.4662910  60.3088470  72.5751420  30.9178370  60.5797040
  72.2229860  32.3318920  60.1694460  68.7234420  27.5336480  56.1829980
  67.7974200  27.7757620  56.1735390  69.1890850  28.3610740  56.0614730
  70.8447220  30.6508980  69.4974050  71.6459950  30.9721030  69.9109450
  70.3299040  30.2904560  70.2193960  74.9491250  30.6393220  52.1314040
  75.7419860  30.9282050  51.6795830  74.4295600  30.2085390  51.4526520
  68.5645030  23.1382440  68.4410100  69.0684050  22.5589720  69.0126330
  67.8252450  23.4222670  68.9786470  75.4668650  25.8596630  51.9956390
  75.3619290  25.2448980  52.7217770  75.2992870  25.3362520  51.2119400
  75.6182970  24.5453430  67.9745620  74.8528640  25.1138430  67.8900290
  75.7998930  24.2529640  67.0813850  70.5968110  21.2812030  69.3360170
  70.6373450  20.9825900  70.2445400  71.4513610  21.6819640  69.1767690
  74.3746500  23.8807580  54.4963680  74.7962920  23.7147450  55.3395070
  74.4997340  23.0707810  54.0018820  72.5373920  19.8604130  67.3034660
  72.0070380  19.3695080  66.6758000  73.2061990  20.2888330  66.7692590
  73.0246220  16.8266500  67.3831950  72.9303090  16.2087250  66.6582820
  72.4443610  17.5532790  67.1561860  75.7907660  15.3839740  64.4159340
  75.3424960  15.4064000  63.5704890  75.1572860  14.9858760  65.0129640
  76.1967210  24.2794070  65.0371780  76.6155320  25.1226800  64.8648020
  75.2775840  24.4166110  64.8078560  73.2705400  19.9540810  51.4421840
  73.0694460  19.0908170  51.8035180  73.0997450  19.8674170  50.5043440
  74.0474630  30.5847080  66.1529510  73.5095720  31.3093140  65.8338210
  74.3008590  30.1077420  65.3626850  75.2999880  18.5531600  67.6785440
  75.8899570  18.2447450  68.3663260  74.4820120  18.0811350  67.8345340
  72.0688200  17.0541430  51.4299720  72.3714100  17.0608860  50.5218870
  72.8082790  16.7039290  51.9267380  76.9036840  31.8198290  66.4116160
  76.8295540  32.7233430  66.7188530  76.0015680  31.5010190  66.3838230
  75.2873130  15.9976050  52.4155920  74.9395130  15.3200040  51.8358370
  75.4885900  15.5365560  53.2299310  71.0918330  26.3583850  52.2629520
  71.5293200  26.9013520  52.9187100  71.5766060  25.5330800  52.2725860
  68.3064130  29.1472880  59.7149780  68.6367140  28.2793940  59.4828420
  68.7355130  29.3531400  60.5454740  72.9026050  27.4781890  57.3751750
  72.6021590  27.3546860  58.2755660  72.7963540  26.6190480  56.9667480
  68.7954340  30.0143470  62.4531410  68.3585330  30.1944270  63.2855560
  69.3632020  30.7718090  62.3113130  68.6278770  22.5263700  58.8120290
  67.9727610  22.2575340  58.1679990  69.4656720  22.4168180  58.3622270
  69.6654700  22.9116270  63.3523630  70.0327740  22.8243670  64.2319650
  69.0965520  22.1482820  63.2530490  69.2170700  19.8225360  67.2582050
  68.3226750  19.7892120  67.5975760  69.7568250  20.0212150  68.0233300
  67.8416850  19.7362630  54.7545620  66.9380930  19.9992830  54.5797280
  68.3257470  20.0073800  53.9745580  70.3844060  18.7928170  52.6640000
  71.0935760  18.3711390  52.1787280  69.6684000  18.8603400  52.0323350
  70.0318220  14.8467500  51.7042650  70.7546350  15.3876440  52.0223870
  70.3042740  14.5730920  50.8284190  69.7210410  14.0973690  61.6065270
  70.3686600  13.5471070  61.1660430  70.1412250  14.3516840  62.4281080
  69.4742410  14.2529360  64.3490590  69.1257230  14.7093180  65.1148770
  69.1430110  13.3586490  64.4313020  71.0806780  27.4248960  68.5143780
  71.0376410  27.0541870  69.3958240  71.2117790  28.3626530  68.6545600
  74.7812810  28.9808550  64.1153500  74.5404170  29.2483110  63.2284020
  75.7215450  29.1514280  64.1704360  70.1463050  13.7805560  67.6241360
  70.6946040  13.5993610  66.8607470  70.2118360  12.9899670  68.1597670
  70.9194810  30.3711210  65.6341560  70.3255130  30.2395910  66.3731600
  70.9118650  29.5349350  65.1683660  70.5507040  27.7369590  64.5849600
  69.8241100  27.1174880  64.5175550  70.6116190  28.1310200  63.7147680
  74.1552140  29.9514590  61.3699010  74.6717160  29.3401950  60.8447270
  74.8049520  30.4543370  61.8610020  68.8337040  31.0543980  57.7946360
  68.6659080  30.4214660  58.4928250  67.9671550  31.2603380  57.4440550
  69.4565060  14.8860760  55.2978220  70.2144420  14.9989640  54.7242250
  68.9942230  15.7229960  55.2521650  75.9978870  17.0000030  58.2880530
  75.1853380  16.6256920  57.9476410  76.5020510  16.2445110  58.5901720
  70.4399740  29.7477210  55.2396500  69.9147360  30.1285240  54.5358460
  70.3644320  30.3727980  55.9606210  71.8290210  15.4124810  53.8380190
  72.3582970  14.6254610  53.7088140  72.4618530  16.0916000  54.0715720
  74.0228050  15.1499950  56.8925580  73.3930790  14.4487260  57.0595710
  73.4833190  15.9104080  56.6758740  74.1483610  14.4283930  69.3278070
  73.8667880  14.9317530  68.5638890  74.5303310  13.6305680  68.9620200
  73.0392710  31.6959590  54.1145750  73.7711530  31.4118870  53.5669640
  73.2986380  31.4572870  55.0045130  72.2007500  27.8124320  54.1192080
  71.5716380  28.2809420  54.6677910  72.3155330  26.9673540  54.5538270
  71.8041090  23.9528810  43.0278310  70.9725970  23.6977520  43.4274820
  72.4122070  24.0239580  43.7636230  71.7842350  27.9868900  43.2236330
  72.0870390  27.0966640  43.0446550  72.5285940  28.5439120  42.9958580
  70.2133040  18.9130700  36.8120700  69.3249740  19.2546670  36.7100580
  70.4974230  18.7131020  35.9201530  68.1766050  21.5136350  42.6960400
  68.7482160  20.7458550  42.6964040  68.1767590  21.8125110  41.7867010
  69.4190920  16.9220710  44.4829330  69.2393760  16.0246460  44.7632090
  69.0171000  17.4692580  45.1576280  72.3894430  17.4962200  37.8459080
  72.4961180  18.3965930  38.1527840  71.4786790  17.4480170  37.5553730
  70.0377590  19.4181210  43.0911670  70.7187700  19.6819580  43.7099070
  69.7225640  18.5782080  43.4249680  74.2302160  20.4648570  42.1784260
  74.7380380  20.9629540  42.8189280  74.7615400  19.6883770  42.0023620
  72.5138260  15.1047130  46.4447680  72.5156700  15.6219520  45.6393580
  71.6842570  14.6277310  46.4217610  73.7641110  24.7442310  44.6221180
  73.4310490  25.3711230  45.2642250  73.9407790  25.2704190  43.8422850
  72.1953590  16.8157090  44.4518130  72.5370400  17.6599140  44.1572000
  71.2569400  16.9640830  44.5683470  72.9760210  26.7123110  46.4370360
  73.5934210  27.3874190  46.1554810  72.1153330  27.1211090  46.3457860
  68.2692550  25.9022970  35.3177210  67.8920530  26.3910070  34.5862110
  68.5265620  26.5748250  35.9483740  75.8781480  14.3039360  40.7762720
  76.1856460  13.7486250  40.0598220  74.9482180  14.4383820  40.5935710
  73.8718880  22.8952930  40.2942570  73.4675880  22.1830180  39.7988470
  73.9582000  22.5506170  41.1830610  74.3400580  26.5820490  42.4581780
  74.0428870  25.9765960  41.7789560  75.2900400  26.6197800  42.3471140
  72.5847500  19.6696140  44.0741610  73.1362090  19.7791480  43.2994860
  73.0991010  20.0433740  44.7896840  73.4319010  26.3202180  49.1089580
  72.5347540  26.5442150  49.3562980  73.4571880  26.4437120  48.1600980
  72.2590230  23.1915500  47.6846950  72.1198000  24.0638300  48.0534350
  71.3771590  22.8488310  47.5394890  74.0570580  29.1337200  49.8932100
  74.0286010  29.5380150  49.0260530  73.8935550  28.2047560  49.7303700
  70.5723510  21.7897910  37.7949220  70.4521110  22.5160000  37.1830490
  70.2624400  21.0200820  37.3177130  68.2108880  24.9613050  43.6017860
  68.2889300  25.0961820  42.6573580  68.8250560  24.2528940  43.7945980
  69.4556510  26.6613240  40.0124040  69.0484590  26.8027830  39.1577640
  70.3469520  26.3773400  39.8095250  73.7278170  30.8759020  38.1246710
  73.5520650  29.9594560  37.9114510  72.8733910  31.2346310  38.3644510
  68.2668400  26.0027220  46.1412320  68.4299440  25.5332580  45.3231690
  68.7320850  25.4950780  46.8061160  73.0387170  15.1332980  41.1772890
  72.5955320  15.9142520  40.8457410  73.5972160  15.4562870  41.8843830
  76.1545990  14.7543680  36.0578720  75.5300170  14.7503550  36.7832030
  76.0676110  13.8874640  35.6614690  75.0763070  15.6780310  43.0362490
  75.3735400  16.5843140  42.9554510  75.6248630  15.1899090  42.4222060
  72.8301390  20.2566550  38.9054140  72.6042310  20.0403720  39.8100760
  72.0493920  20.6895010  38.5600110  75.2700600  21.1552130  49.5714410
  75.1744200  20.2146860  49.4214810  76.1132580  21.3767200  49.1762480
  70.4011140  17.5665800  47.7248190  70.0074530  18.4141010  47.9320970
  69.7129540  16.9292170  47.9156830  67.7028190  15.4894260  41.7578270
  67.4141240  16.0597120  42.4703250  68.4473950  15.0098710  42.1209500
  67.8898420  19.4314380  32.9680990  67.8073090  20.3745140  33.1095980
  67.5381480  19.2889290  32.0893340  75.6896550  18.1653410  42.0351340
  75.6932610  17.7243360  41.1855880  76.5847670  18.4870740  42.1423160
  71.5398930  18.0479900  40.9945550  71.1998980  18.5255130  41.7512600
  70.7776250  17.5945020  40.6346650  75.7516700  19.1665490  35.0258100
  75.8729520  19.1251970  35.9743920  75.3665210  20.0289640  34.8704830
  74.7638200  21.4766630  34.4241400  74.1955100  21.0284880  33.7977310
  75.4727200  21.8359410  33.8906550  69.8407380  25.3778650  48.3008130
  69.4562170  24.7372320  48.8991090  70.1519570  26.0814770  48.8702860
  75.9904520  22.2255190  43.7816750  76.3574650  21.7513760  44.5278090
  75.8009580  23.0996760  44.1225090  68.8545010  16.9698880  39.9110220
  68.5691930  16.6054550  40.7488840  68.7923870  16.2379340  39.2973360
  73.7803890  21.2663830  46.1000960  73.4760960  22.1455810  46.3251320
  74.7350350  21.3263620  46.1358400  72.3085680  25.4724820  36.6967810
  71.5347940  24.9322440  36.5366530  73.0380310  24.9531430  36.3585570
  72.3523080  25.1405200  40.3346620  72.8701750  24.3373460  40.2803510
  71.9007100  25.0784340  41.1763450  69.8367620  22.1066570  47.2472320
  69.4782560  22.7720420  47.8345660  69.5422180  21.2750120  47.6184940
  73.0380740  22.5650810  50.1311870  72.7380880  22.7107990  49.2339690
  73.8091980  22.0056100  50.0385260  76.2083270  26.4885010  38.3789840
  76.8954400  27.0354220  38.7597430  75.4215690  27.0325740  38.4139450
  68.3475670  22.1057830  33.8706920  69.2170520  22.3882630  34.1542840
  67.8565990  22.9193700  33.7555730  75.5110480  23.4931040  37.9915200
  75.9673260  24.3036290  38.2175390  75.1598690  23.1754180  38.8233690
  71.4122260  13.8368690  38.4637720  71.2836890  13.8286590  39.4122640
  70.5884280  14.1751780  38.1128730  68.7146920  31.3185210  34.4368550
  69.0744560  31.9174550  33.7825820  68.5739260  31.8645100  35.2103580
  68.4116190  15.5959810  47.9244420  67.6974710  15.7956730  48.5297030
  68.8311230  14.8199380  48.2959220  68.6988780  29.5840070  48.9110950
  68.8079900  28.6434810  48.7706340  68.0469340  29.8494820  48.2624680
  76.6901370  27.8555960  50.3109070  76.3698240  27.1365200  50.8554760
  76.0159730  28.5311030  50.3845130  74.7315540  28.7016410  35.2542220
  74.7225640  29.4346100  34.6386730  73.8113900  28.4547990  35.3469180
  70.3322180  23.9231300  35.9988980  69.7250130  24.6630200  36.0084280
  70.8071530  24.0130660  35.1727180  75.2401030  19.3225010  37.8991310
  74.5317180  19.7911350  38.3404920  75.5245510  18.6647020  38.5336500
  76.3593250  31.2830970  38.6115080  76.6134750  31.2452360  37.6894450
  75.4105730  31.1564300  38.6043330  73.4436050  17.6310090  35.2742020
  74.2926580  18.0680240  35.2082210  73.0767320  17.9430350  36.1014080
  72.3427470  23.8842450  33.7477550  73.1090740  23.7723810  34.3102980
  72.4202160  23.1880420  33.0954320  71.0374230  21.3167520  34.4310440
  71.1177820  20.3695030  34.5427840  71.9293980  21.6474400  34.5371100
  71.8388940  31.4662910  41.5344980  72.5751420  30.9178370  41.8053550
  72.2229860  32.3318920  41.3950970  68.7234420  27.5336480  37.4086490
  67.7974200  27.7757620  37.3991900  69.1890850  28.3610740  37.2871240
  70.8447220  30.6508980  50.7230560  71.6459950  30.9721030  51.1365960
  70.3299040  30.2904560  51.4450470  74.9491250  30.6393220  33.3570550
  75.7419860  30.9282050  32.9052340  74.4295600  30.2085390  32.6783030
  68.5645030  23.1382440  49.6666610  69.0684050  22.5589720  50.2382840
  67.8252450  23.4222670  50.2042980  75.4668650  25.8596630  33.2212900
  75.3619290  25.2448980  33.9474280  75.2992870  25.3362520  32.4375910
  75.6182970  24.5453430  49.2002130  74.8528640  25.1138430  49.1156800
  75.7998930  24.2529640  48.3070360  70.5968110  21.2812030  50.5616680
  70.6373450  20.9825900  51.4701910  71.4513610  21.6819640  50.4024200
  74.3746500  23.8807580  35.7220190  74.7962920  23.7147450  36.5651580
  74.4997340  23.0707810  35.2275330  72.5373920  19.8604130  48.5291170
  72.0070380  19.3695080  47.9014510  73.2061990  20.2888330  47.9949100
  73.0246220  16.8266500  48.6088460  72.9303090  16.2087250  47.8839330
  72.4443610  17.5532790  48.3818370  75.7907660  15.3839740  45.6415850
  75.3424960  15.4064000  44.7961400  75.1572860  14.9858760  46.2386150
  76.1967210  24.2794070  46.2628290  76.6155320  25.1226800  46.0904530
  75.2775840  24.4166110  46.0335070  73.2705400  19.9540810  32.6678350
  73.0694460  19.0908170  33.0291690  73.0997450  19.8674170  31.7299950
  74.0474630  30.5847080  47.3786020  73.5095720  31.3093140  47.0594720
  74.3008590  30.1077420  46.5883360  75.2999880  18.5531600  48.9041950
  75.8899570  18.2447450  49.5919770  74.4820120  18.0811350  49.0601850
  72.0688200  17.0541430  32.6556230  72.3714100  17.0608860  31.7475380
  72.8082790  16.7039290  33.1523890  76.9036840  31.8198290  47.6372670
  76.8295540  32.7233430  47.9445040  76.0015680  31.5010190  47.6094740
  75.2873130  15.9976050  33.6412430  74.9395130  15.3200040  33.0614880
  75.4885900  15.5365560  34.4555820  71.0918330  26.3583850  33.4886030
  71.5293200  26.9013520  34.1443610  71.5766060  25.5330800  33.4982370
  68.3064130  29.1472880  40.9406290  68.6367140  28.2793940  40.7084930
  68.7355130  29.3531400  41.7711250  72.9026050  27.4781890  38.6008260
  72.6021590  27.3546860  39.5012170  72.7963540  26.6190480  38.1923990
  68.7954340  30.0143470  43.6787920  68.3585330  30.1944270  44.5112070
  69.3632020  30.7718090  43.5369640  68.6278770  22.5263700  40.0376800
  67.9727610  22.2575340  39.3936500  69.4656720  22.4168180  39.5878780
  69.6654700  22.9116270  44.5780140  70.0327740  22.8243670  45.4576160
  69.0965520  22.1482820  44.4787000  69.2170700  19.8225360  48.4838560
  68.3226750  19.7892120  48.8232270  69.7568250  20.0212150  49.2489810
  67.8416850  19.7362630  35.9802130  66.9380930  19.9992830  35.8053790
  68.3257470  20.0073800  35.2002090  70.3844060  18.7928170  33.8896510
  71.0935760  18.3711390  33.4043790  69.6684000  18.8603400  33.2579860
  70.0318220  14.8467500  32.9299160  70.7546350  15.3876440  33.2480380
  70.3042740  14.5730920  32.0540700  69.7210410  14.0973690  42.8321780
  70.3686600  13.5471070  42.3916940  70.1412250  14.3516840  43.6537590
  69.4742410  14.2529360  45.5747100  69.1257230  14.7093180  46.3405280
  69.1430110  13.3586490  45.6569530  71.0806780  27.4248960  49.7400290
  71.0376410  27.0541870  50.6214750  71.2117790  28.3626530  49.8802110
  74.7812810  28.9808550  45.3410010  74.5404170  29.2483110  44.4540530
  75.7215450  29.1514280  45.3960870  70.1463050  13.7805560  48.8497870
  70.6946040  13.5993610  48.0863980  70.2118360  12.9899670  49.3854180
  70.9194810  30.3711210  46.8598070  70.3255130  30.2395910  47.5988110
  70.9118650  29.5349350  46.3940170  70.5507040  27.7369590  45.8106110
  69.8241100  27.1174880  45.7432060  70.6116190  28.1310200  44.9404190
  74.1552140  29.9514590  42.5955520  74.6717160  29.3401950  42.0703780
  74.8049520  30.4543370  43.0866530  68.8337040  31.0543980  39.0202870
  68.6659080  30.4214660  39.7184760  67.9671550  31.2603380  38.6697060
  69.4565060  14.8860760  36.5234730  70.2144420  14.9989640  35.9498760
  68.9942230  15.7229960  36.4778160  75.9978870  17.0000030  39.5137040
  75.1853380  16.6256920  39.1732920  76.5020510  16.2445110  39.8158230
  70.4399740  29.7477210  36.4653010  69.9147360  30.1285240  35.7614970
  70.3644320  30.3727980  37.1862720  71.8290210  15.4124810  35.0636700
  72.3582970  14.6254610  34.9344650  72.4618530  16.0916000  35.2972230
  74.0228050  15.1499950  38.1182090  73.3930790  14.4487260  38.2852220
  73.4833190  15.9104080  37.9015250  74.1483610  14.4283930  50.5534580
  73.8667880  14.9317530  49.7895400  74.5303310  13.6305680  50.1876710
  73.0392710  31.6959590  35.3402260  73.7711530  31.4118870  34.7926150
  73.2986380  31.4572870  36.2301640  72.2007500  27.8124320  35.3448590
  71.5716380  28.2809420  35.8934420  72.3155330  26.9673540  35.7794780
  71.8041090  23.9528810  24.2534820  70.9725970  23.6977520  24.6531330
  72.4122070  24.0239580  24.9892740  71.7842350  27.9868900  24.4492840
  72.0870390  27.0966640  24.2703060  72.5285940  28.5439120  24.2215090
  70.2133040  18.9130700  18.0377210  69.3249740  19.2546670  17.9357090
  70.4974230  18.7131020  17.1458040  68.1766050  21.5136350  23.9216910
  68.7482160  20.7458550  23.9220550  68.1767590  21.8125110  23.0123520
  69.4190920  16.9220710  25.7085840  69.2393760  16.0246460  25.9888600
  69.0171000  17.4692580  26.3832790  72.3894430  17.4962200  19.0715590
  72.4961180  18.3965930  19.3784350  71.4786790  17.4480170  18.7810240
  70.0377590  19.4181210  24.3168180  70.7187700  19.6819580  24.9355580
  69.7225640  18.5782080  24.6506190  74.2302160  20.4648570  23.4040770
  74.7380380  20.9629540  24.0445790  74.7615400  19.6883770  23.2280130
  72.5138260  15.1047130  27.6704190  72.5156700  15.6219520  26.8650090
  71.6842570  14.6277310  27.6474120  73.7641110  24.7442310  25.8477690
  73.4310490  25.3711230  26.4898760  73.9407790  25.2704190  25.0679360
  72.1953590  16.8157090  25.6774640  72.5370400  17.6599140  25.3828510
  71.2569400  16.9640830  25.7939980  72.9760210  26.7123110  27.6626870
  73.5934210  27.3874190  27.3811320  72.1153330  27.1211090  27.5714370
  68.2692550  25.9022970  16.5433720  67.8920530  26.3910070  15.8118620
  68.5265620  26.5748250  17.1740250  75.8781480  14.3039360  22.0019230
  76.1856460  13.7486250  21.2854730  74.9482180  14.4383820  21.8192220
  73.8718880  22.8952930  21.5199080  73.4675880  22.1830180  21.0244980
  73.9582000  22.5506170  22.4087120  74.3400580  26.5820490  23.6838290
  74.0428870  25.9765960  23.0046070  75.2900400  26.6197800  23.5727650
  72.5847500  19.6696140  25.2998120  73.1362090  19.7791480  24.5251370
  73.0991010  20.0433740  26.0153350  73.4319010  26.3202180  30.3346090
  72.5347540  26.5442150  30.5819490  73.4571880  26.4437120  29.3857490
  72.2590230  23.1915500  28.9103460  72.1198000  24.0638300  29.2790860
  71.3771590  22.8488310  28.7651400  74.0570580  29.1337200  31.1188610
  74.0286010  29.5380150  30.2517040  73.8935550  28.2047560  30.9560210
  70.5723510  21.7897910  19.0205730  70.4521110  22.5160000  18.4087000
  70.2624400  21.0200820  18.5433640  68.2108880  24.9613050  24.8274370
  68.2889300  25.0961820  23.8830090  68.8250560  24.2528940  25.0202490
  69.4556510  26.6613240  21.2380550  69.0484590  26.8027830  20.3834150
  70.3469520  26.3773400  21.0351760  73.7278170  30.8759020  19.3503220
  73.5520650  29.9594560  19.1371020  72.8733910  31.2346310  19.5901020
  68.2668400  26.0027220  27.3668830  68.4299440  25.5332580  26.5488200
  68.7320850  25.4950780  28.0317670  73.0387170  15.1332980  22.4029400
  72.5955320  15.9142520  22.0713920  73.5972160  15.4562870  23.1100340
  76.1545990  14.7543680  17.2835230  75.5300170  14.7503550  18.0088540
  76.0676110  13.8874640  16.8871200  75.0763070  15.6780310  24.2619000
  75.3735400  16.5843140  24.1811020  75.6248630  15.1899090  23.6478570
  72.8301390  20.2566550  20.1310650  72.6042310  20.0403720  21.0357270
  72.0493920  20.6895010  19.7856620  75.2700600  21.1552130  30.7970920
  75.1744200  20.2146860  30.6471320  76.1132580  21.3767200  30.4018990
  70.4011140  17.5665800  28.9504700  70.0074530  18.4141010  29.1577480
  69.7129540  16.9292170  29.1413340  67.7028190  15.4894260  22.9834780
  67.4141240  16.0597120  23.6959760  68.4473950  15.0098710  23.3466010
  67.8898420  19.4314380  14.1937500  67.8073090  20.3745140  14.3352490
  67.5381480  19.2889290  13.3149850  75.6896550  18.1653410  23.2607850
  75.6932610  17.7243360  22.4112390  76.5847670  18.4870740  23.3679670
  71.5398930  18.0479900  22.2202060  71.1998980  18.5255130  22.9769110
  70.7776250  17.5945020  21.8603160  75.7516700  19.1665490  16.2514610
  75.8729520  19.1251970  17.2000430  75.3665210  20.0289640  16.0961340
  74.7638200  21.4766630  15.6497910  74.1955100  21.0284880  15.0233820
  75.4727200  21.8359410  15.1163060  69.8407380  25.3778650  29.5264640
  69.4562170  24.7372320  30.1247600  70.1519570  26.0814770  30.0959370
  75.9904520  22.2255190  25.0073260  76.3574650  21.7513760  25.7534600
  75.8009580  23.0996760  25.3481600  68.8545010  16.9698880  21.1366730
  68.5691930  16.6054550  21.9745350  68.7923870  16.2379340  20.5229870
  73.7803890  21.2663830  27.3257470  73.4760960  22.1455810  27.5507830
  74.7350350  21.3263620  27.3614910  72.3085680  25.4724820  17.9224320
  71.5347940  24.9322440  17.7623040  73.0380310  24.9531430  17.5842080
  72.3523080  25.1405200  21.5603130  72.8701750  24.3373460  21.5060020
  71.9007100  25.0784340  22.4019960  69.8367620  22.1066570  28.4728830
  69.4782560  22.7720420  29.0602170  69.5422180  21.2750120  28.8441450
  73.0380740  22.5650810  31.3568380  72.7380880  22.7107990  30.4596200
  73.8091980  22.0056100  31.2641770  76.2083270  26.4885010  19.6046350
  76.8954400  27.0354220  19.9853940  75.4215690  27.0325740  19.6395960
  68.3475670  22.1057830  15.0963430  69.2170520  22.3882630  15.3799350
  67.8565990  22.9193700  14.9812240  75.5110480  23.4931040  19.2171710
  75.9673260  24.3036290  19.4431900  75.1598690  23.1754180  20.0490200
  71.4122260  13.8368690  19.6894230  71.2836890  13.8286590  20.6379150
  70.5884280  14.1751780  19.3385240  68.7146920  31.3185210  15.6625060
  69.0744560  31.9174550  15.0082330  68.5739260  31.8645100  16.4360090
  68.4116190  15.5959810  29.1500930  67.6974710  15.7956730  29.7553540
  68.8311230  14.8199380  29.5215730  68.6988780  29.5840070  30.1367460
  68.8079900  28.6434810  29.9962850  68.0469340  29.8494820  29.4881190
  76.6901370  27.8555960  31.5365580  76.3698240  27.1365200  32.0811270
  76.0159730  28.5311030  31.6101640  74.7315540  28.7016410  16.4798730
  74.7225640  29.4346100  15.8643240  73.8113900  28.4547990  16.5725690
  70.3322180  23.9231300  17.2245490  69.7250130  24.6630200  17.2340790
  70.8071530  24.0130660  16.3983690  75.2401030  19.3225010  19.1247820
  74.5317180  19.7911350  19.5661430  75.5245510  18.6647020  19.7593010
  76.3593250  31.2830970  19.8371590  76.6134750  31.2452360  18.9150960
  75.4105730  31.1564300  19.8299840  73.4436050  17.6310090  16.4998530
  74.2926580  18.0680240  16.4338720  73.0767320  17.9430350  17.3270590
  72.3427470  23.8842450  14.9734060  73.1090740  23.7723810  15.5359490
  72.4202160  23.1880420  14.3210830  71.0374230  21.3167520  15.6566950
  71.1177820  20.3695030  15.7684350  71.9293980  21.6474400  15.7627610
  71.8388940  31.4662910  22.7601490  72.5751420  30.9178370  23.0310060
  72.2229860  32.3318920  22.6207480  68.7234420  27.5336480  18.6343000
  67.7974200  27.7757620  18.6248410  69.1890850  28.3610740  18.5127750
  70.8447220  30.6508980  31.9487070  71.6459950  30.9721030  32.3622470
  70.3299040  30.2904560  32.6706980  74.9491250  30.6393220  14.5827060
  75.7419860  30.9282050  14.1308850  74.4295600  30.2085390  13.9039540
  68.5645030  23.1382440  30.8923120  69.0684050  22.5589720  31.4639350
  67.8252450  23.4222670  31.4299490  75.4668650  25.8596630  14.4469410
  75.3619290  25.2448980  15.1730790  75.2992870  25.3362520  13.6632420
  75.6182970  24.5453430  30.4258640  74.8528640  25.1138430  30.3413310
  75.7998930  24.2529640  29.5326870  70.5968110  21.2812030  31.7873190
  70.6373450  20.9825900  32.6958420  71.4513610  21.6819640  31.6280710
  74.3746500  23.8807580  16.9476700  74.7962920  23.7147450  17.7908090
  74.4997340  23.0707810  16.4531840  72.5373920  19.8604130  29.7547680
  72.0070380  19.3695080  29.1271020  73.2061990  20.2888330  29.2205610
  73.0246220  16.8266500  29.8344970  72.9303090  16.2087250  29.1095840
  72.4443610  17.5532790  29.6074880  75.7907660  15.3839740  26.8672360
  75.3424960  15.4064000  26.0217910  75.1572860  14.9858760  27.4642660
  76.1967210  24.2794070  27.4884800  76.6155320  25.1226800  27.3161040
  75.2775840  24.4166110  27.2591580  73.2705400  19.9540810  13.8934860
  73.0694460  19.0908170  14.2548200  73.0997450  19.8674170  12.9556460
  74.0474630  30.5847080  28.6042530  73.5095720  31.3093140  28.2851230
  74.3008590  30.1077420  27.8139870  75.2999880  18.5531600  30.1298460
  75.8899570  18.2447450  30.8176280  74.4820120  18.0811350  30.2858360
  72.0688200  17.0541430  13.8812740  72.3714100  17.0608860  12.9731890
  72.8082790  16.7039290  14.3780400  76.9036840  31.8198290  28.8629180
  76.8295540  32.7233430  29.1701550  76.0015680  31.5010190  28.8351250
  75.2873130  15.9976050  14.8668940  74.9395130  15.3200040  14.2871390
  75.4885900  15.5365560  15.6812330  71.0918330  26.3583850  14.7142540
  71.5293200  26.9013520  15.3700120  71.5766060  25.5330800  14.7238880
  68.3064130  29.1472880  22.1662800  68.6367140  28.2793940  21.9341440
  68.7355130  29.3531400  22.9967760  72.9026050  27.4781890  19.8264770
  72.6021590  27.3546860  20.7268680  72.7963540  26.6190480  19.4180500
  68.7954340  30.0143470  24.9044430  68.3585330  30.1944270  25.7368580
  69.3632020  30.7718090  24.7626150  68.6278770  22.5263700  21.2633310
  67.9727610  22.2575340  20.6193010  69.4656720  22.4168180  20.8135290
  69.6654700  22.9116270  25.8036650  70.0327740  22.8243670  26.6832670
  69.0965520  22.1482820  25.7043510  69.2170700  19.8225360  29.7095070
  68.3226750  19.7892120  30.0488780  69.7568250  20.0212150  30.4746320
  67.8416850  19.7362630  17.2058640  66.9380930  19.9992830  17.0310300
  68.3257470  20.0073800  16.4258600  70.3844060  18.7928170  15.1153020
  71.0935760  18.3711390  14.6300300  69.6684000  18.8603400  14.4836370
  70.0318220  14.8467500  14.1555670  70.7546350  15.3876440  14.4736890
  70.3042740  14.5730920  13.2797210  69.7210410  14.0973690  24.0578290
  70.3686600  13.5471070  23.6173450  70.1412250  14.3516840  24.8794100
  69.4742410  14.2529360  26.8003610  69.1257230  14.7093180  27.5661790
  69.1430110  13.3586490  26.8826040  71.0806780  27.4248960  30.9656800
  71.0376410  27.0541870  31.8471260  71.2117790  28.3626530  31.1058620
  74.7812810  28.9808550  26.5666520  74.5404170  29.2483110  25.6797040
  75.7215450  29.1514280  26.6217380  70.1463050  13.7805560  30.0754380
  70.6946040  13.5993610  29.3120490  70.2118360  12.9899670  30.6110690
  70.9194810  30.3711210  28.0854580  70.3255130  30.2395910  28.8244620
  70.9118650  29.5349350  27.6196680  70.5507040  27.7369590  27.0362620
  69.8241100  27.1174880  26.9688570  70.6116190  28.1310200  26.1660700
  74.1552140  29.9514590  23.8212030  74.6717160  29.3401950  23.2960290
  74.8049520  30.4543370  24.3123040  68.8337040  31.0543980  20.2459380
  68.6659080  30.4214660  20.9441270  67.9671550  31.2603380  19.8953570
  69.4565060  14.8860760  17.7491240  70.2144420  14.9989640  17.1755270
  68.9942230  15.7229960  17.7034670  75.9978870  17.0000030  20.7393550
  75.1853380  16.6256920  20.3989430  76.5020510  16.2445110  21.0414740
  70.4399740  29.7477210  17.6909520  69.9147360  30.1285240  16.9871480
  70.3644320  30.3727980  18.4119230  71.8290210  15.4124810  16.2893210
  72.3582970  14.6254610  16.1601160  72.4618530  16.0916000  16.5228740
  74.0228050  15.1499950  19.3438600  73.3930790  14.4487260  19.5108730
  73.4833190  15.9104080  19.1271760  74.1483610  14.4283930  31.7791090
  73.8667880  14.9317530  31.0151910  74.5303310  13.6305680  31.4133220
  73.0392710  31.6959590  16.5658770  73.7711530  31.4118870  16.0182660
  73.2986380  31.4572870  17.4558150  72.2007500  27.8124320  16.5705100
  71.5716380  28.2809420  17.1190930  72.3155330  26.9673540  17.0051290
  71.8041090  23.9528810   5.4791330  70.9725970  23.6977520   5.8787840
  72.4122070  24.0239580   6.2149250  71.7842350  27.9868900   5.6749350
  72.0870390  27.0966640   5.4959570  72.5285940  28.5439120   5.4471600
  68.1766050  21.5136350   5.1473420  68.7482160  20.7458550   5.1477060
  68.1767590  21.8125110   4.2380030  69.4190920  16.9220710   6.9342350
  69.2393760  16.0246460   7.2145110  69.0171000  17.4692580   7.6089300
  70.0377590  19.4181210   5.5424690  70.7187700  19.6819580   6.1612090
  69.7225640  18.5782080   5.8762700  74.2302160  20.4648570   4.6297280
  74.7380380  20.9629540   5.2702300  74.7615400  19.6883770   4.4536640
  72.5138260  15.1047130   8.8960700  72.5156700  15.6219520   8.0906600
  71.6842570  14.6277310   8.8730630  73.7641110  24.7442310   7.0734200
  73.4310490  25.3711230   7.7155270  73.9407790  25.2704190   6.2935870
  72.1953590  16.8157090   6.9031150  72.5370400  17.6599140   6.6085020
  71.2569400  16.9640830   7.0196490  72.9760210  26.7123110   8.8883380
  73.5934210  27.3874190   8.6067830  72.1153330  27.1211090   8.7970880
  75.8781480  14.3039360   3.2275740  76.1856460  13.7486250   2.5111240
  74.9482180  14.4383820   3.0448730  73.8718880  22.8952930   2.7455590
  73.4675880  22.1830180   2.2501490  73.9582000  22.5506170   3.6343630
  74.3400580  26.5820490   4.9094800  74.0428870  25.9765960   4.2302580
  75.2900400  26.6197800   4.7984160  72.5847500  19.6696140   6.5254630
  73.1362090  19.7791480   5.7507880  73.0991010  20.0433740   7.2409860
  73.4319010  26.3202180  11.5602600  72.5347540  26.5442150  11.8076000
  73.4571880  26.4437120  10.6114000  72.2590230  23.1915500  10.1359970
  72.1198000  24.0638300  10.5047370  71.3771590  22.8488310   9.9907910
  74.0570580  29.1337200  12.3445120  74.0286010  29.5380150  11.4773550
  73.8935550  28.2047560  12.1816720  68.2108880  24.9613050   6.0530880
  68.2889300  25.0961820   5.1086600  68.8250560  24.2528940   6.2459000
  68.2668400  26.0027220   8.5925340  68.4299440  25.5332580   7.7744710
  68.7320850  25.4950780   9.2574180  73.0387170  15.1332980   3.6285910
  72.5955320  15.9142520   3.2970430  73.5972160  15.4562870   4.3356850
  75.0763070  15.6780310   5.4875510  75.3735400  16.5843140   5.4067530
  75.6248630  15.1899090   4.8735080  75.2700600  21.1552130  12.0227430
  75.1744200  20.2146860  11.8727830  76.1132580  21.3767200  11.6275500
  70.4011140  17.5665800  10.1761210  70.0074530  18.4141010  10.3833990
  69.7129540  16.9292170  10.3669850  67.7028190  15.4894260   4.2091290
  67.4141240  16.0597120   4.9216270  68.4473950  15.0098710   4.5722520
  75.6896550  18.1653410   4.4864360  75.6932610  17.7243360   3.6368900
  76.5847670  18.4870740   4.5936180  71.5398930  18.0479900   3.4458570
  71.1998980  18.5255130   4.2025620  70.7776250  17.5945020   3.0859670
  69.8407380  25.3778650  10.7521150  69.4562170  24.7372320  11.3504110
  70.1519570  26.0814770  11.3215880  75.9904520  22.2255190   6.2329770
  76.3574650  21.7513760   6.9791110  75.8009580  23.0996760   6.5738110
  68.8545010  16.9698880   2.3623240  68.5691930  16.6054550   3.2001860
  68.7923870  16.2379340   1.7486380  73.7803890  21.2663830   8.5513980
  73.4760960  22.1455810   8.7764340  74.7350350  21.3263620   8.5871420
  72.3523080  25.1405200   2.7859640  72.8701750  24.3373460   2.7316530
  71.9007100  25.0784340   3.6276470  69.8367620  22.1066570   9.6985340
  69.4782560  22.7720420  10.2858680  69.5422180  21.2750120  10.0697960
  73.0380740  22.5650810  12.5824890  72.7380880  22.7107990  11.6852710
  73.8091980  22.0056100  12.4898280  68.4116190  15.5959810  10.3757440
  67.6974710  15.7956730  10.9810050  68.8311230  14.8199380  10.7472240
  68.6988780  29.5840070  11.3623970  68.8079900  28.6434810  11.2219360
  68.0469340  29.8494820  10.7137700  76.6901370  27.8555960  12.7622090
  76.3698240  27.1365200  13.3067780  76.0159730  28.5311030  12.8358150
  71.8388940  31.4662910   3.9858000  72.5751420  30.9178370   4.2566570
  72.2229860  32.3318920   3.8463990  70.8447220  30.6508980  13.1743580
  71.6459950  30.9721030  13.5878980  70.3299040  30.2904560  13.8963490
  68.5645030  23.1382440  12.1179630  69.0684050  22.5589720  12.6895860
  67.8252450  23.4222670  12.6556000  75.6182970  24.5453430  11.6515150
  74.8528640  25.1138430  11.5669820  75.7998930  24.2529640  10.7583380
  70.5968110  21.2812030  13.0129700  70.6373450  20.9825900  13.9214930
  71.4513610  21.6819640  12.8537220  72.5373920  19.8604130  10.9804190
  72.0070380  19.3695080  10.3527530  73.2061990  20.2888330  10.4462120
  73.0246220  16.8266500  11.0601480  72.9303090  16.2087250  10.3352350
  72.4443610  17.5532790  10.8331390  75.7907660  15.3839740   8.0928870
  75.3424960  15.4064000   7.2474420  75.1572860  14.9858760   8.6899170
  76.1967210  24.2794070   8.7141310  76.6155320  25.1226800   8.5417550
  75.2775840  24.4166110   8.4848090  74.0474630  30.5847080   9.8299040
  73.5095720  31.3093140   9.5107740  74.3008590  30.1077420   9.0396380
  75.2999880  18.5531600  11.3554970  75.8899570  18.2447450  12.0432790
  74.4820120  18.0811350  11.5114870  76.9036840  31.8198290  10.0885690
  76.8295540  32.7233430  10.3958060  76.0015680  31.5010190  10.0607760
  68.3064130  29.1472880   3.3919310  68.6367140  28.2793940   3.1597950
  68.7355130  29.3531400   4.2224270  68.7954340  30.0143470   6.1300940
  68.3585330  30.1944270   6.9625090  69.3632020  30.7718090   5.9882660
  68.6278770  22.5263700   2.4889820  67.9727610  22.2575340   1.8449520
  69.4656720  22.4168180   2.0391800  69.6654700  22.9116270   7.0293160
  70.0327740  22.8243670   7.9089180  69.0965520  22.1482820   6.9300020
  69.2170700  19.8225360  10.9351580  68.3226750  19.7892120  11.2745290
  69.7568250  20.0212150  11.7002830  69.7210410  14.0973690   5.2834800
  70.3686600  13.5471070   4.8429960  70.1412250  14.3516840   6.1050610
  69.4742410  14.2529360   8.0260120  69.1257230  14.7093180   8.7918300
  69.1430110  13.3586490   8.1082550  71.0806780  27.4248960  12.1913310
  71.0376410  27.0541870  13.0727770  71.2117790  28.3626530  12.3315130
  74.7812810  28.9808550   7.7923030  74.5404170  29.2483110   6.9053550
  75.7215450  29.1514280   7.8473890  70.1463050  13.7805560  11.3010890
  70.6946040  13.5993610  10.5377000  70.2118360  12.9899670  11.8367200
  70.9194810  30.3711210   9.3111090  70.3255130  30.2395910  10.0501130
  70.9118650  29.5349350   8.8453190  70.5507040  27.7369590   8.2619130
  69.8241100  27.1174880   8.1945080  70.6116190  28.1310200   7.3917210
  74.1552140  29.9514590   5.0468540  74.6717160  29.3401950   4.5216800
  74.8049520  30.4543370   5.5379550  74.1483610  14.4283930  13.0047600
  73.8667880  14.9317530  12.2408420  74.5303310  13.6305680  12.6389730
  71.8041090   5.1785320  80.5765290  70.9725970   4.9234030  80.9761800
  72.4122070   5.2496090  81.3123210  71.7842350   9.2125410  80.7723310
  72.0870390   8.3223150  80.5933530  72.5285940   9.7695630  80.5445560
  68.1766050   2.7392860  80.2447380  68.7482160   1.9715060  80.2451020
  68.1767590   3.0381620  79.3353990  68.2692550   7.1279480  72.8664190
  67.8920530   7.6166580  72.1349090  68.5265620   7.8004760  73.4970720
  73.8718880   4.1209440  77.8429550  73.4675880   3.4086690  77.3475450
  73.9582000   3.7762680  78.7317590  74.3400580   7.8077000  80.0068760
  74.0428870   7.2022470  79.3276540  75.2900400   7.8454310  79.8958120
  70.5723510   3.0154420  75.3436200  70.4521110   3.7416510  74.7317470
  70.2624400   2.2457330  74.8664110  68.2108880   6.1869560  81.1504840
  68.2889300   6.3218330  80.2060560  68.8250560   5.4785450  81.3432960
  69.4556510   7.8869750  77.5611020  69.0484590   8.0284340  76.7064620
  70.3469520   7.6029910  77.3582230  73.7278170  12.1015530  75.6733690
  73.5520650  11.1851070  75.4601490  72.8733910  12.4602820  75.9131490
  74.7638200   2.7023140  71.9728380  74.1955100   2.2541390  71.3464290
  75.4727200   3.0615920  71.4393530  72.3085680   6.6981330  74.2454790
  71.5347940   6.1578950  74.0853510  73.0380310   6.1787940  73.9072550
  72.3523080   6.3661710  77.8833600  72.8701750   5.5629970  77.8290490
  71.9007100   6.3040850  78.7250430  76.2083270   7.7141520  75.9276820
  76.8954400   8.2610730  76.3084410  75.4215690   8.2582250  75.9626430
  68.3475670   3.3314340  71.4193900  69.2170520   3.6139140  71.7029820
  67.8565990   4.1450210  71.3042710  75.5110480   4.7187550  75.5402180
  75.9673260   5.5292800  75.7662370  75.1598690   4.4010690  76.3720670
  68.7146920  12.5441720  71.9855530  69.0744560  13.1431060  71.3312800
  68.5739260  13.0901610  72.7590560  74.7315540   9.9272920  72.8029200
  74.7225640  10.6602610  72.1873710  73.8113900   9.6804500  72.8956160
  70.3322180   5.1487810  73.5475960  69.7250130   5.8886710  73.5571260
  70.8071530   5.2387170  72.7214160  76.3593250  12.5087480  76.1602060
  76.6134750  12.4708870  75.2381430  75.4105730  12.3820810  76.1530310
  72.3427470   5.1098960  71.2964530  73.1090740   4.9980320  71.8589960
  72.4202160   4.4136930  70.6441300  71.8388940  12.6919420  79.0831960
  72.5751420  12.1434880  79.3540530  72.2229860  13.5575430  78.9437950
  68.7234420   8.7592990  74.9573470  67.7974200   9.0014130  74.9478880
  69.1890850   9.5867250  74.8358220  74.9491250  11.8649730  70.9057530
  75.7419860  12.1538560  70.4539320  74.4295600  11.4341900  70.2270010
  75.4668650   7.0853140  70.7699880  75.3619290   6.4705490  71.4961260
  75.2992870   6.5619030  69.9862890  74.3746500   5.1064090  73.2707170
  74.7962920   4.9403960  74.1138560  74.4997340   4.2964320  72.7762310
  71.0918330   7.5840360  71.0373010  71.5293200   8.1270030  71.6930590
  71.5766060   6.7587310  71.0469350  68.3064130  10.3729390  78.4893270
  68.6367140   9.5050450  78.2571910  68.7355130  10.5787910  79.3198230
  72.9026050   8.7038400  76.1495240  72.6021590   8.5803370  77.0499150
  72.7963540   7.8446990  75.7410970  68.6278770   3.7520210  77.5863780
  67.9727610   3.4831850  76.9423480  69.4656720   3.6424690  77.1365760
  74.1552140  11.1771100  80.1442500  74.6717160  10.5658460  79.6190760
  74.8049520  11.6799880  80.6353510  68.8337040  12.2800490  76.5689850
  68.6659080  11.6471170  77.2671740  67.9671550  12.4859890  76.2184040
  70.4399740  10.9733720  74.0139990  69.9147360  11.3541750  73.3101950
  70.3644320  11.5984490  74.7349700  73.0392710  12.9216100  72.8889240
  73.7711530  12.6375380  72.3413130  73.2986380  12.6829380  73.7788620
  72.2007500   9.0380830  72.8935570  71.5716380   9.5065930  73.4421400
  72.3155330   8.1930050  73.3281760  71.8041090   5.1785320  61.8021800
  70.9725970   4.9234030  62.2018310  72.4122070   5.2496090  62.5379720
  71.7842350   9.2125410  61.9979820  72.0870390   8.3223150  61.8190040
  72.5285940   9.7695630  61.7702070  68.1766050   2.7392860  61.4703890
  68.7482160   1.9715060  61.4707530  68.1767590   3.0381620  60.5610500
  73.7641110   5.9698820  63.3964670  73.4310490   6.5967740  64.0385740
  73.9407790   6.4960700  62.6166340  72.9760210   7.9379620  65.2113850
  73.5934210   8.6130700  64.9298300  72.1153330   8.3467600  65.1201350
  68.2692550   7.1279480  54.0920700  67.8920530   7.6166580  53.3605600
  68.5265620   7.8004760  54.7227230  73.8718880   4.1209440  59.0686060
  73.4675880   3.4086690  58.5731960  73.9582000   3.7762680  59.9574100
  74.3400580   7.8077000  61.2325270  74.0428870   7.2022470  60.5533050
  75.2900400   7.8454310  61.1214630  73.4319010   7.5458690  67.8833070
  72.5347540   7.7698660  68.1306470  73.4571880   7.6693630  66.9344470
  72.2590230   4.4172010  66.4590440  72.1198000   5.2894810  66.8277840
  71.3771590   4.0744820  66.3138380  74.0570580  10.3593710  68.6675590
  74.0286010  10.7636660  67.8004020  73.8935550   9.4304070  68.5047190
  70.5723510   3.0154420  56.5692710  70.4521110   3.7416510  55.9573980
  70.2624400   2.2457330  56.0920620  68.2108880   6.1869560  62.3761350
  68.2889300   6.3218330  61.4317070  68.8250560   5.4785450  62.5689470
  69.4556510   7.8869750  58.7867530  69.0484590   8.0284340  57.9321130
  70.3469520   7.6029910  58.5838740  73.7278170  12.1015530  56.8990200
  73.5520650  11.1851070  56.6858000  72.8733910  12.4602820  57.1388000
  68.2668400   7.2283730  64.9155810  68.4299440   6.7589090  64.0975180
  68.7320850   6.7207290  65.5804650  74.7638200   2.7023140  53.1984890
  74.1955100   2.2541390  52.5720800  75.4727200   3.0615920  52.6650040
  69.8407380   6.6035160  67.0751620  69.4562170   5.9628830  67.6734580
  70.1519570   7.3071280  67.6446350  75.9904520   3.4511700  62.5560240
  76.3574650   2.9770270  63.3021580  75.8009580   4.3253270  62.8968580
  73.7803890   2.4920340  64.8744450  73.4760960   3.3712320  65.0994810
  74.7350350   2.5520130  64.9101890  72.3085680   6.6981330  55.4711300
  71.5347940   6.1578950  55.3110020  73.0380310   6.1787940  55.1329060
  72.3523080   6.3661710  59.1090110  72.8701750   5.5629970  59.0547000
  71.9007100   6.3040850  59.9506940  69.8367620   3.3323080  66.0215810
  69.4782560   3.9976930  66.6089150  69.5422180   2.5006630  66.3928430
  73.0380740   3.7907320  68.9055360  72.7380880   3.9364500  68.0083180
  73.8091980   3.2312610  68.8128750  76.2083270   7.7141520  57.1533330
  76.8954400   8.2610730  57.5340920  75.4215690   8.2582250  57.1882940
  68.3475670   3.3314340  52.6450410  69.2170520   3.6139140  52.9286330
  67.8565990   4.1450210  52.5299220  75.5110480   4.7187550  56.7658690
  75.9673260   5.5292800  56.9918880  75.1598690   4.4010690  57.5977180
  68.7146920  12.5441720  53.2112040  69.0744560  13.1431060  52.5569310
  68.5739260  13.0901610  53.9847070  68.6988780  10.8096580  67.6854440
  68.8079900   9.8691320  67.5449830  68.0469340  11.0751330  67.0368170
  76.6901370   9.0812470  69.0852560  76.3698240   8.3621710  69.6298250
  76.0159730   9.7567540  69.1588620  74.7315540   9.9272920  54.0285710
  74.7225640  10.6602610  53.4130220  73.8113900   9.6804500  54.1212670
  70.3322180   5.1487810  54.7732470  69.7250130   5.8886710  54.7827770
  70.8071530   5.2387170  53.9470670  76.3593250  12.5087480  57.3858570
  76.6134750  12.4708870  56.4637940  75.4105730  12.3820810  57.3786820
  72.3427470   5.1098960  52.5221040  73.1090740   4.9980320  53.0846470
  72.4202160   4.4136930  51.8697810  71.8388940  12.6919420  60.3088470
  72.5751420  12.1434880  60.5797040  72.2229860  13.5575430  60.1694460
  68.7234420   8.7592990  56.1829980  67.7974200   9.0014130  56.1735390
  69.1890850   9.5867250  56.0614730  70.8447220  11.8765490  69.4974050
  71.6459950  12.1977540  69.9109450  70.3299040  11.5161070  70.2193960
  74.9491250  11.8649730  52.1314040  75.7419860  12.1538560  51.6795830
  74.4295600  11.4341900  51.4526520  68.5645030   4.3638950  68.4410100
  69.0684050   3.7846230  69.0126330  67.8252450   4.6479180  68.9786470
  75.4668650   7.0853140  51.9956390  75.3619290   6.4705490  52.7217770
  75.2992870   6.5619030  51.2119400  75.6182970   5.7709940  67.9745620
  74.8528640   6.3394940  67.8900290  75.7998930   5.4786150  67.0813850
  70.5968110   2.5068540  69.3360170  70.6373450   2.2082410  70.2445400
  71.4513610   2.9076150  69.1767690  74.3746500   5.1064090  54.4963680
  74.7962920   4.9403960  55.3395070  74.4997340   4.2964320  54.0018820
  76.1967210   5.5050580  65.0371780  76.6155320   6.3483310  64.8648020
  75.2775840   5.6422620  64.8078560  74.0474630  11.8103590  66.1529510
  73.5095720  12.5349650  65.8338210  74.3008590  11.3333930  65.3626850
  76.9036840  13.0454800  66.4116160  76.8295540  13.9489940  66.7188530
  76.0015680  12.7266700  66.3838230  71.0918330   7.5840360  52.2629520
  71.5293200   8.1270030  52.9187100  71.5766060   6.7587310  52.2725860
  68.3064130  10.3729390  59.7149780  68.6367140   9.5050450  59.4828420
  68.7355130  10.5787910  60.5454740  72.9026050   8.7038400  57.3751750
  72.6021590   8.5803370  58.2755660  72.7963540   7.8446990  56.9667480
  68.7954340  11.2399980  62.4531410  68.3585330  11.4200780  63.2855560
  69.3632020  11.9974600  62.3113130  68.6278770   3.7520210  58.8120290
  67.9727610   3.4831850  58.1679990  69.4656720   3.6424690  58.3622270
  69.6654700   4.1372780  63.3523630  70.0327740   4.0500180  64.2319650
  69.0965520   3.3739330  63.2530490  71.0806780   8.6505470  68.5143780
  71.0376410   8.2798380  69.3958240  71.2117790   9.5883040  68.6545600
  74.7812810  10.2065060  64.1153500  74.5404170  10.4739620  63.2284020
  75.7215450  10.3770790  64.1704360  70.9194810  11.5967720  65.6341560
  70.3255130  11.4652420  66.3731600  70.9118650  10.7605860  65.1683660
  70.5507040   8.9626100  64.5849600  69.8241100   8.3431390  64.5175550
  70.6116190   9.3566710  63.7147680  74.1552140  11.1771100  61.3699010
  74.6717160  10.5658460  60.8447270  74.8049520  11.6799880  61.8610020
  68.8337040  12.2800490  57.7946360  68.6659080  11.6471170  58.4928250
  67.9671550  12.4859890  57.4440550  70.4399740  10.9733720  55.2396500
  69.9147360  11.3541750  54.5358460  70.3644320  11.5984490  55.9606210
  73.0392710  12.9216100  54.1145750  73.7711530  12.6375380  53.5669640
  73.2986380  12.6829380  55.0045130  72.2007500   9.0380830  54.1192080
  71.5716380   9.5065930  54.6677910  72.3155330   8.1930050  54.5538270
  71.8041090   5.1785320  43.0278310  70.9725970   4.9234030  43.4274820
  72.4122070   5.2496090  43.7636230  71.7842350   9.2125410  43.2236330
  72.0870390   8.3223150  43.0446550  72.5285940   9.7695630  42.9958580
  68.1766050   2.7392860  42.6960400  68.7482160   1.9715060  42.6964040
  68.1767590   3.0381620  41.7867010  73.7641110   5.9698820  44.6221180
  73.4310490   6.5967740  45.2642250  73.9407790   6.4960700  43.8422850
  72.9760210   7.9379620  46.4370360  73.5934210   8.6130700  46.1554810
  72.1153330   8.3467600  46.3457860  68.2692550   7.1279480  35.3177210
  67.8920530   7.6166580  34.5862110  68.5265620   7.8004760  35.9483740
  73.8718880   4.1209440  40.2942570  73.4675880   3.4086690  39.7988470
  73.9582000   3.7762680  41.1830610  74.3400580   7.8077000  42.4581780
  74.0428870   7.2022470  41.7789560  75.2900400   7.8454310  42.3471140
  73.4319010   7.5458690  49.1089580  72.5347540   7.7698660  49.3562980
  73.4571880   7.6693630  48.1600980  72.2590230   4.4172010  47.6846950
  72.1198000   5.2894810  48.0534350  71.3771590   4.0744820  47.5394890
  74.0570580  10.3593710  49.8932100  74.0286010  10.7636660  49.0260530
  73.8935550   9.4304070  49.7303700  70.5723510   3.0154420  37.7949220
  70.4521110   3.7416510  37.1830490  70.2624400   2.2457330  37.3177130
  68.2108880   6.1869560  43.6017860  68.2889300   6.3218330  42.6573580
  68.8250560   5.4785450  43.7945980  69.4556510   7.8869750  40.0124040
  69.0484590   8.0284340  39.1577640  70.3469520   7.6029910  39.8095250
  73.7278170  12.1015530  38.1246710  73.5520650  11.1851070  37.9114510
  72.8733910  12.4602820  38.3644510  68.2668400   7.2283730  46.1412320
  68.4299440   6.7589090  45.3231690  68.7320850   6.7207290  46.8061160
  74.7638200   2.7023140  34.4241400  74.1955100   2.2541390  33.7977310
  75.4727200   3.0615920  33.8906550  69.8407380   6.6035160  48.3008130
  69.4562170   5.9628830  48.8991090  70.1519570   7.3071280  48.8702860
  75.9904520   3.4511700  43.7816750  76.3574650   2.9770270  44.5278090
  75.8009580   4.3253270  44.1225090  73.7803890   2.4920340  46.1000960
  73.4760960   3.3712320  46.3251320  74.7350350   2.5520130  46.1358400
  72.3085680   6.6981330  36.6967810  71.5347940   6.1578950  36.5366530
  73.0380310   6.1787940  36.3585570  72.3523080   6.3661710  40.3346620
  72.8701750   5.5629970  40.2803510  71.9007100   6.3040850  41.1763450
  69.8367620   3.3323080  47.2472320  69.4782560   3.9976930  47.8345660
  69.5422180   2.5006630  47.6184940  73.0380740   3.7907320  50.1311870
  72.7380880   3.9364500  49.2339690  73.8091980   3.2312610  50.0385260
  76.2083270   7.7141520  38.3789840  76.8954400   8.2610730  38.7597430
  75.4215690   8.2582250  38.4139450  68.3475670   3.3314340  33.8706920
  69.2170520   3.6139140  34.1542840  67.8565990   4.1450210  33.7555730
  75.5110480   4.7187550  37.9915200  75.9673260   5.5292800  38.2175390
  75.1598690   4.4010690  38.8233690  68.7146920  12.5441720  34.4368550
  69.0744560  13.1431060  33.7825820  68.5739260  13.0901610  35.2103580
  68.6988780  10.8096580  48.9110950  68.8079900   9.8691320  48.7706340
  68.0469340  11.0751330  48.2624680  76.6901370   9.0812470  50.3109070
  76.3698240   8.3621710  50.8554760  76.0159730   9.7567540  50.3845130
  74.7315540   9.9272920  35.2542220  74.7225640  10.6602610  34.6386730
  73.8113900   9.6804500  35.3469180  70.3322180   5.1487810  35.9988980
  69.7250130   5.8886710  36.0084280  70.8071530   5.2387170  35.1727180
  76.3593250  12.5087480  38.6115080  76.6134750  12.4708870  37.6894450
  75.4105730  12.3820810  38.6043330  72.3427470   5.1098960  33.7477550
  73.1090740   4.9980320  34.3102980  72.4202160   4.4136930  33.0954320
  71.8388940  12.6919420  41.5344980  72.5751420  12.1434880  41.8053550
  72.2229860  13.5575430  41.3950970  68.7234420   8.7592990  37.4086490
  67.7974200   9.0014130  37.3991900  69.1890850   9.5867250  37.2871240
  70.8447220  11.8765490  50.7230560  71.6459950  12.1977540  51.1365960
  70.3299040  11.5161070  51.4450470  74.9491250  11.8649730  33.3570550
  75.7419860  12.1538560  32.9052340  74.4295600  11.4341900  32.6783030
  68.5645030   4.3638950  49.6666610  69.0684050   3.7846230  50.2382840
  67.8252450   4.6479180  50.2042980  75.4668650   7.0853140  33.2212900
  75.3619290   6.4705490  33.9474280  75.2992870   6.5619030  32.4375910
  75.6182970   5.7709940  49.2002130  74.8528640   6.3394940  49.1156800
  75.7998930   5.4786150  48.3070360  70.5968110   2.5068540  50.5616680
  70.6373450   2.2082410  51.4701910  71.4513610   2.9076150  50.4024200
  74.3746500   5.1064090  35.7220190  74.7962920   4.9403960  36.5651580
  74.4997340   4.2964320  35.2275330  76.1967210   5.5050580  46.2628290
  76.6155320   6.3483310  46.0904530  75.2775840   5.6422620  46.0335070
  74.0474630  11.8103590  47.3786020  73.5095720  12.5349650  47.0594720
  74.3008590  11.3333930  46.5883360  76.9036840  13.0454800  47.6372670
  76.8295540  13.9489940  47.9445040  76.0015680  12.7266700  47.6094740
  71.0918330   7.5840360  33.4886030  71.5293200   8.1270030  34.1443610
  71.5766060   6.7587310  33.4982370  68.3064130  10.3729390  40.9406290
  68.6367140   9.5050450  40.7084930  68.7355130  10.5787910  41.7711250
  72.9026050   8.7038400  38.6008260  72.6021590   8.5803370  39.5012170
  72.7963540   7.8446990  38.1923990  68.7954340  11.2399980  43.6787920
  68.3585330  11.4200780  44.5112070  69.3632020  11.9974600  43.5369640
  68.6278770   3.7520210  40.0376800  67.9727610   3.4831850  39.3936500
  69.4656720   3.6424690  39.5878780  69.6654700   4.1372780  44.5780140
  70.0327740   4.0500180  45.4576160  69.0965520   3.3739330  44.4787000
  71.0806780   8.6505470  49.7400290  71.0376410   8.2798380  50.6214750
  71.2117790   9.5883040  49.8802110  74.7812810  10.2065060  45.3410010
  74.5404170  10.4739620  44.4540530  75.7215450  10.3770790  45.3960870
  70.9194810  11.5967720  46.8598070  70.3255130  11.4652420  47.5988110
  70.9118650  10.7605860  46.3940170  70.5507040   8.9626100  45.8106110
  69.8241100   8.3431390  45.7432060  70.6116190   9.3566710  44.9404190
  74.1552140  11.1771100  42.5955520  74.6717160  10.5658460  42.0703780
  74.8049520  11.6799880  43.0866530  68.8337040  12.2800490  39.0202870
  68.6659080  11.6471170  39.7184760  67.9671550  12.4859890  38.6697060
  70.4399740  10.9733720  36.4653010  69.9147360  11.3541750  35.7614970
  70.3644320  11.5984490  37.1862720  73.0392710  12.9216100  35.3402260
  73.7711530  12.6375380  34.7926150  73.2986380  12.6829380  36.2301640
  72.2007500   9.0380830  35.3448590  71.5716380   9.5065930  35.8934420
  72.3155330   8.1930050  35.7794780  71.8041090   5.1785320  24.2534820
  70.9725970   4.9234030  24.6531330  72.4122070   5.2496090  24.9892740
  71.7842350   9.2125410  24.4492840  72.0870390   8.3223150  24.2703060
  72.5285940   9.7695630  24.2215090  68.1766050   2.7392860  23.9216910
  68.7482160   1.9715060  23.9220550  68.1767590   3.0381620  23.0123520
  73.7641110   5.9698820  25.8477690  73.4310490   6.5967740  26.4898760
  73.9407790   6.4960700  25.0679360  72.9760210   7.9379620  27.6626870
  73.5934210   8.6130700  27.3811320  72.1153330   8.3467600  27.5714370
  68.2692550   7.1279480  16.5433720  67.8920530   7.6166580  15.8118620
  68.5265620   7.8004760  17.1740250  73.8718880   4.1209440  21.5199080
  73.4675880   3.4086690  21.0244980  73.9582000   3.7762680  22.4087120
  74.3400580   7.8077000  23.6838290  74.0428870   7.2022470  23.0046070
  75.2900400   7.8454310  23.5727650  73.4319010   7.5458690  30.3346090
  72.5347540   7.7698660  30.5819490  73.4571880   7.6693630  29.3857490
  72.2590230   4.4172010  28.9103460  72.1198000   5.2894810  29.2790860
  71.3771590   4.0744820  28.7651400  74.0570580  10.3593710  31.1188610
  74.0286010  10.7636660  30.2517040  73.8935550   9.4304070  30.9560210
  70.5723510   3.0154420  19.0205730  70.4521110   3.7416510  18.4087000
  70.2624400   2.2457330  18.5433640  68.2108880   6.1869560  24.8274370
  68.2889300   6.3218330  23.8830090  68.8250560   5.4785450  25.0202490
  69.4556510   7.8869750  21.2380550  69.0484590   8.0284340  20.3834150
  70.3469520   7.6029910  21.0351760  73.7278170  12.1015530  19.3503220
  73.5520650  11.1851070  19.1371020  72.8733910  12.4602820  19.5901020
  68.2668400   7.2283730  27.3668830  68.4299440   6.7589090  26.5488200
  68.7320850   6.7207290  28.0317670  74.7638200   2.7023140  15.6497910
  74.1955100   2.2541390  15.0233820  75.4727200   3.0615920  15.1163060
  69.8407380   6.6035160  29.5264640  69.4562170   5.9628830  30.1247600
  70.1519570   7.3071280  30.0959370  75.9904520   3.4511700  25.0073260
  76.3574650   2.9770270  25.7534600  75.8009580   4.3253270  25.3481600
  73.7803890   2.4920340  27.3257470  73.4760960   3.3712320  27.5507830
  74.7350350   2.5520130  27.3614910  72.3085680   6.6981330  17.9224320
  71.5347940   6.1578950  17.7623040  73.0380310   6.1787940  17.5842080
  72.3523080   6.3661710  21.5603130  72.8701750   5.5629970  21.5060020
  71.9007100   6.3040850  22.4019960  69.8367620   3.3323080  28.4728830
  69.4782560   3.9976930  29.0602170  69.5422180   2.5006630  28.8441450
  73.0380740   3.7907320  31.3568380  72.7380880   3.9364500  30.4596200
  73.8091980   3.2312610  31.2641770  76.2083270   7.7141520  19.6046350
  76.8954400   8.2610730  19.9853940  75.4215690   8.2582250  19.6395960
  68.3475670   3.3314340  15.0963430  69.2170520   3.6139140  15.3799350
  67.8565990   4.1450210  14.9812240  75.5110480   4.7187550  19.2171710
  75.9673260   5.5292800  19.4431900  75.1598690   4.4010690  20.0490200
  68.7146920  12.5441720  15.6625060  69.0744560  13.1431060  15.0082330
  68.5739260  13.0901610  16.4360090  68.6988780  10.8096580  30.1367460
  68.8079900   9.8691320  29.9962850  68.0469340  11.0751330  29.4881190
  76.6901370   9.0812470  31.5365580  76.3698240   8.3621710  32.0811270
  76.0159730   9.7567540  31.6101640  74.7315540   9.9272920  16.4798730
  74.7225640  10.6602610  15.8643240  73.8113900   9.6804500  16.5725690
  70.3322180   5.1487810  17.2245490  69.7250130   5.8886710  17.2340790
  70.8071530   5.2387170  16.3983690  76.3593250  12.5087480  19.8371590
  76.6134750  12.4708870  18.9150960  75.4105730  12.3820810  19.8299840
  72.3427470   5.1098960  14.9734060  73.1090740   4.9980320  15.5359490
  72.4202160   4.4136930  14.3210830  71.8388940  12.6919420  22.7601490
  72.5751420  12.1434880  23.0310060  72.2229860  13.5575430  22.6207480
  68.7234420   8.7592990  18.6343000  67.7974200   9.0014130  18.6248410
  69.1890850   9.5867250  18.5127750  70.8447220  11.8765490  31.9487070
  71.6459950  12.1977540  32.3622470  70.3299040  11.5161070  32.6706980
  74.9491250  11.8649730  14.5827060  75.7419860  12.1538560  14.1308850
  74.4295600  11.4341900  13.9039540  68.5645030   4.3638950  30.8923120
  69.0684050   3.7846230  31.4639350  67.8252450   4.6479180  31.4299490
  75.4668650   7.0853140  14.4469410  75.3619290   6.4705490  15.1730790
  75.2992870   6.5619030  13.6632420  75.6182970   5.7709940  30.4258640
  74.8528640   6.3394940  30.3413310  75.7998930   5.4786150  29.5326870
  70.5968110   2.5068540  31.7873190  70.6373450   2.2082410  32.6958420
  71.4513610   2.9076150  31.6280710  74.3746500   5.1064090  16.9476700
  74.7962920   4.9403960  17.7908090  74.4997340   4.2964320  16.4531840
  76.1967210   5.5050580  27.4884800  76.6155320   6.3483310  27.3161040
  75.2775840   5.6422620  27.2591580  74.0474630  11.8103590  28.6042530
  73.5095720  12.5349650  28.2851230  74.3008590  11.3333930  27.8139870
  76.9036840  13.0454800  28.8629180  76.8295540  13.9489940  29.1701550
  76.0015680  12.7266700  28.8351250  71.0918330   7.5840360  14.7142540
  71.5293200   8.1270030  15.3700120  71.5766060   6.7587310  14.7238880
  68.3064130  10.3729390  22.1662800  68.6367140   9.5050450  21.9341440
  68.7355130  10.5787910  22.9967760  72.9026050   8.7038400  19.8264770
  72.6021590   8.5803370  20.7268680  72.7963540   7.8446990  19.4180500
  68.7954340  11.2399980  24.9044430  68.3585330  11.4200780  25.7368580
  69.3632020  11.9974600  24.7626150  68.6278770   3.7520210  21.2633310
  67.9727610   3.4831850  20.6193010  69.4656720   3.6424690  20.8135290
  69.6654700   4.1372780  25.8036650  70.0327740   4.0500180  26.6832670
  69.0965520   3.3739330  25.7043510  71.0806780   8.6505470  30.9656800
  71.0376410   8.2798380  31.8471260  71.2117790   9.5883040  31.1058620
  74.7812810  10.2065060  26.5666520  74.5404170  10.4739620  25.6797040
  75.7215450  10.3770790  26.6217380  70.9194810  11.5967720  28.0854580
  70.3255130  11.4652420  28.8244620  70.9118650  10.7605860  27.6196680
  70.5507040   8.9626100  27.0362620  69.8241100   8.3431390  26.9688570
  70.6116190   9.3566710  26.1660700  74.1552140  11.1771100  23.8212030
  74.6717160  10.5658460  23.2960290  74.8049520  11.6799880  24.3123040
  68.8337040  12.2800490  20.2459380  68.6659080  11.6471170  20.9441270
  67.9671550  12.4859890  19.8953570  70.4399740  10.9733720  17.6909520
  69.9147360  11.3541750  16.9871480  70.3644320  11.5984490  18.4119230
  73.0392710  12.9216100  16.5658770  73.7711530  12.6375380  16.0182660
  73.2986380  12.6829380  17.4558150  72.2007500   9.0380830  16.5705100
  71.5716380   9.5065930  17.1190930  72.3155330   8.1930050  17.0051290
  71.8041090   5.1785320   5.4791330  70.9725970   4.9234030   5.8787840
  72.4122070   5.2496090   6.2149250  71.7842350   9.2125410   5.6749350
  72.0870390   8.3223150   5.4959570  72.5285940   9.7695630   5.4471600
  68.1766050   2.7392860   5.1473420  68.7482160   1.9715060   5.1477060
  68.1767590   3.0381620   4.2380030  73.7641110   5.9698820   7.0734200
  73.4310490   6.5967740   7.7155270  73.9407790   6.4960700   6.2935870
  72.9760210   7.9379620   8.8883380  73.5934210   8.6130700   8.6067830
  72.1153330   8.3467600   8.7970880  73.8718880   4.1209440   2.7455590
  73.4675880   3.4086690   2.2501490  73.9582000   3.7762680   3.6343630
  74.3400580   7.8077000   4.9094800  74.0428870   7.2022470   4.2302580
  75.2900400   7.8454310   4.7984160  73.4319010   7.5458690  11.5602600
  72.5347540   7.7698660  11.8076000  73.4571880   7.6693630  10.6114000
  72.2590230   4.4172010  10.1359970  72.1198000   5.2894810  10.5047370
  71.3771590   4.0744820   9.9907910  74.0570580  10.3593710  12.3445120
  74.0286010  10.7636660  11.4773550  73.8935550   9.4304070  12.1816720
  68.2108880   6.1869560   6.0530880  68.2889300   6.3218330   5.1086600
  68.8250560   5.4785450   6.2459000  68.2668400   7.2283730   8.5925340
  68.4299440   6.7589090   7.7744710  68.7320850   6.7207290   9.2574180
  69.8407380   6.6035160  10.7521150  69.4562170   5.9628830  11.3504110
  70.1519570   7.3071280  11.3215880  75.9904520   3.4511700   6.2329770
  76.3574650   2.9770270   6.9791110  75.8009580   4.3253270   6.5738110
  73.7803890   2.4920340   8.5513980  73.4760960   3.3712320   8.7764340
  74.7350350   2.5520130   8.5871420  72.3523080   6.3661710   2.7859640
  72.8701750   5.5629970   2.7316530  71.9007100   6.3040850   3.6276470
  69.8367620   3.3323080   9.6985340  69.4782560   3.9976930  10.2858680
  69.5422180   2.5006630  10.0697960  73.0380740   3.7907320  12.5824890
  72.7380880   3.9364500  11.6852710  73.8091980   3.2312610  12.4898280
  68.6988780  10.8096580  11.3623970  68.8079900   9.8691320  11.2219360
  68.0469340  11.0751330  10.7137700  76.6901370   9.0812470  12.7622090
  76.3698240   8.3621710  13.3067780  76.0159730   9.7567540  12.8358150
  71.8388940  12.6919420   3.9858000  72.5751420  12.1434880   4.2566570
  72.2229860  13.5575430   3.8463990  70.8447220  11.8765490  13.1743580
  71.6459950  12.1977540  13.5878980  70.3299040  11.5161070  13.8963490
  68.5645030   4.3638950  12.1179630  69.0684050   3.7846230  12.6895860
  67.8252450   4.6479180  12.6556000  75.6182970   5.7709940  11.6515150
  74.8528640   6.3394940  11.5669820  75.7998930   5.4786150  10.7583380
  70.5968110   2.5068540  13.0129700  70.6373450   2.2082410  13.9214930
  71.4513610   2.9076150  12.8537220  76.1967210   5.5050580   8.7141310
  76.6155320   6.3483310   8.5417550  75.2775840   5.6422620   8.4848090
  74.0474630  11.8103590   9.8299040  73.5095720  12.5349650   9.5107740
  74.3008590  11.3333930   9.0396380  76.9036840  13.0454800  10.0885690
  76.8295540  13.9489940  10.3958060  76.0015680  12.7266700  10.0607760
  68.3064130  10.3729390   3.3919310  68.6367140   9.5050450   3.1597950
  68.7355130  10.5787910   4.2224270  68.7954340  11.2399980   6.1300940
  68.3585330  11.4200780   6.9625090  69.3632020  11.9974600   5.9882660
  68.6278770   3.7520210   2.4889820  67.9727610   3.4831850   1.8449520
  69.4656720   3.6424690   2.0391800  69.6654700   4.1372780   7.0293160
  70.0327740   4.0500180   7.9089180  69.0965520   3.3739330   6.9300020
  71.0806780   8.6505470  12.1913310  71.0376410   8.2798380  13.0727770
  71.2117790   9.5883040  12.3315130  74.7812810  10.2065060   7.7923030
  74.5404170  10.4739620   6.9053550  75.7215450  10.3770790   7.8473890
  70.9194810  11.5967720   9.3111090  70.3255130  11.4652420  10.0501130
  70.9118650  10.7605860   8.8453190  70.5507040   8.9626100   8.2619130
  69.8241100   8.3431390   8.1945080  70.6116190   9.3566710   7.3917210
  74.1552140  11.1771100   5.0468540  74.6717160  10.5658460   4.5216800
  74.8049520  11.6799880   5.5379550  60.8813730  78.1860450  77.8180260
  60.8007780  77.2715060  77.5471970  60.4678150  78.6827520  77.1119970
  59.0131770  79.9639470  79.6989530  58.2373870  79.4839910  79.9888100
  59.6644700  79.2845120  79.5245690  53.0297600  80.2759280  80.5765290
  52.1982480  80.0207990  80.9761800  53.6378580  80.3470050  81.3123210
  51.4389550  75.2361170  74.3607680  50.5506250  75.5777140  74.2587560
  51.7230740  75.0361490  73.4688510  49.4022560  77.8366820  80.2447380
  49.9738670  77.0689020  80.2451020  49.4024100  78.1355580  79.3353990
  59.4845930  75.4467040  79.9328620  59.8610750  74.5738920  79.8202290
  59.3865440  75.7825740  79.0419060  53.6150940  73.8192670  75.3946060
  53.7217690  74.7196400  75.7014820  52.7043300  73.7710640  75.1040710
  63.2670050  72.9417480  76.8656960  64.0879670  72.4514050  76.9082440
  63.3004130  73.5315140  77.6188800  51.2634100  75.7411680  80.6398650
  51.9444210  76.0050050  81.2586050  50.9482150  74.9012550  80.9736660
  55.4558670  76.7879040  79.7271240  55.9636890  77.2860010  80.3676260
  55.9871910  76.0114240  79.5510600  63.5031530  74.8817860  79.6384500
  62.7987100  75.1702750  80.2187610  63.8643690  75.6917970  79.2784060
  66.5718450  74.3272650  80.0293710  65.6243360  74.3611630  80.1609140
  66.8968440  75.1411600  80.4143070  57.1037990  70.6269830  78.3249700
  57.4112970  70.0716720  77.6085200  56.1738690  70.7614290  78.1422690
  59.4918750  78.6918660  75.0609820  58.5648030  78.6256040  75.2898290
  59.6443570  79.6298790  74.9465060  59.4787830  74.9635660  72.0576980
  58.5391500  75.1249620  72.1429440  59.7971090  75.6821340  71.5112970
  66.0000590  79.6454180  82.0356010  65.1719220  79.7147270  81.5606140
  66.5951070  80.2308490  81.5671840  63.5216040  80.2538960  75.5645070
  62.9028460  79.9158510  74.9171370  63.5040490  79.6098720  76.2724260
  55.0975390  79.2183400  77.8429550  54.6932390  78.5060650  77.3475450
  55.1838510  78.8736640  78.7317590  61.6980740  79.4925770  72.5717820
  62.1374020  78.6548200  72.4255640  62.4109160  80.1255170  72.6581960
  65.2797880  70.7468580  70.8858860  64.9670540  70.8395410  71.7857930
  66.0410350  71.3249610  70.8356290  51.7980020  78.1128380  75.3436200
  51.6777620  78.8390470  74.7317470  51.4880910  77.3431290  74.8664110
  54.2643680  71.4563450  78.7259870  53.8211830  72.2372990  78.3944390
  54.8228670  71.7793340  79.4330810  57.3802500  71.0774150  73.6065700
  56.7556680  71.0734020  74.3319010  57.2932620  70.2105110  73.2101670
  56.3019580  72.0010780  80.5849470  56.5991910  72.9073610  80.5041490
  56.8505140  71.5129560  79.9709040  54.0557900  76.5797020  76.4541120
  53.8298820  76.3634190  77.3587740  53.2750430  77.0125480  76.1087090
  61.2855660  76.5860390  75.0531770  60.6864550  77.3096190  74.8695390
  61.8335270  76.5237170  74.2708220  59.8920530  75.2223930  77.0835050
  60.2850100  75.5396130  76.2703740  60.2537380  74.3435810  77.1979570
  48.9284700  71.8124730  79.3065250  48.6397750  72.3827590  80.0190230
  49.6730460  71.3329180  79.6696480  49.1154930  75.7544850  70.5167970
  49.0329600  76.6975610  70.6582960  48.7637990  75.6119760  69.6380320
  60.4775670  77.8129680  81.1785830  59.7456790  78.3216490  81.5275930
  60.0800010  76.9959660  80.8774610  56.9153060  74.4883880  79.5838320
  56.9189120  74.0473830  78.7342860  57.8104180  74.8101210  79.6910140
  52.7655440  74.3710370  78.5432530  52.4255490  74.8485600  79.2999580
  52.0032760  73.9175490  78.1833630  56.9773210  75.4895960  72.5745080
  57.0986030  75.4482440  73.5230900  56.5921720  76.3520110  72.4191810
  60.9401580  73.2663360  80.5908770  60.9574320  73.7172010  81.4350620
  60.6917160  72.3669000  80.8042210  55.9894710  77.7997100  71.9728380
  55.4211610  77.3515350  71.3464290  56.6983710  78.1589880  71.4393530
  50.0801520  73.2929350  77.4597200  49.7948440  72.9285020  78.2975820
  50.0180380  72.5609810  76.8460340  59.7540110  72.1858610  74.1810570
  58.9404720  71.6871780  74.1055880  59.5602060  73.0256860  73.7646920
  62.4688500  76.5578260  72.4772730  63.3568120  76.8695490  72.3024070
  62.4393590  75.6850510  72.0853310  64.7402770  77.8690100  71.9452590
  64.6566490  78.3004320  71.0949030  65.4596960  78.3288450  72.3779410
  49.5732180  78.4288300  71.4193900  50.4427030  78.7113100  71.7029820
  49.0822500  79.2424170  71.3042710  56.7366990  79.8161510  75.5402180
  57.1929770  80.6266760  75.7662370  56.3855200  79.4984650  76.3720670
  52.6378770  70.1599160  76.0124700  52.5093400  70.1517060  76.9609620
  51.8140790  70.4982250  75.6615710  51.5578690  80.2461770  73.5475960
  50.9506640  80.9860670  73.5571260  52.0328040  80.3361130  72.7214160
  64.4973510  73.3669530  74.0320410  63.8686670  73.4715200  73.3178640
  64.0025430  73.5866310  74.8214290  56.4657540  75.6455480  75.4478290
  55.7573690  76.1141820  75.8891900  56.7502020  74.9877490  76.0823480
  60.4972970  72.3706140  76.8874080  60.3740750  72.3892270  75.9383590
  61.4457530  72.4185080  77.0072480  54.6692560  73.9540560  72.8229000
  55.5183090  74.3910710  72.7569190  54.3023830  74.2660820  73.6501060
  63.5902340  78.5253320  77.7360570  62.6492480  78.5403550  77.9108260
  63.9046410  77.7389280  78.1820870  53.5683980  80.2072920  71.2964530
  54.3347250  80.0954280  71.8589960  53.6458670  79.5110890  70.6441300
  52.2630740  77.6397990  71.9797420  52.3434330  76.6925500  72.0914820
  53.1550490  77.9704870  72.0858080  55.6003010  80.2038050  73.2707170
  56.0219430  80.0377920  74.1138560  55.7253850  79.3938280  72.7762310
  58.1130650  79.2275660  70.5184270  58.6336310  78.5124680  70.1525420
  58.7599050  79.8661530  70.8184780  54.4961910  76.2771280  70.2165330
  54.2950970  75.4138640  70.5778670  54.3253960  76.1904640  69.2786930
  61.9750220  71.0879510  72.7452210  62.2552510  70.2447410  73.1011630
  61.2015950  71.3202620  73.2590960  53.2944710  73.3771900  70.2043210
  53.5970610  73.3839330  69.2962360  54.0339300  73.0269760  70.7010870
  56.5129640  72.3206520  71.1899410  56.1651640  71.6430510  70.6101860
  56.7142410  71.8596030  72.0042800  66.3530940  80.3256240  73.3556120
  67.1149850  80.8952890  73.4615810  66.3685310  79.7583440  74.1264430
  49.8535280  78.8494170  77.5863780  49.1984120  78.5805810  76.9423480
  50.6913230  78.7398650  77.1365760  62.8025720  73.6435460  71.8082270
  63.2210600  73.4566440  70.9678930  62.4961780  72.7914510  72.1185200
  66.3015450  78.5559600  75.5058070  65.9259050  77.7887530  75.0739360
  65.5718570  78.9382300  75.9933000  49.0673360  76.0593100  73.5289110
  48.1637440  76.3223300  73.3540770  49.5513980  76.3304270  72.7489070
  65.5766410  76.7817090  78.8065310  66.1003890  76.2879740  78.1755480
  66.1625830  76.9167450  79.5512880  51.6100570  75.1158640  71.4383490
  52.3192270  74.6941860  70.9530770  50.8940510  75.1833870  70.8066840
  51.2574730  71.1697970  70.4786140  51.9802860  71.7106910  70.7967360
  51.5299250  70.8961390  69.6027680  65.0666380  76.0390440  74.7457720
  65.5625500  75.8061310  75.5306600  64.8682450  75.2002280  74.3295360
  50.9466920  70.4204160  80.3808760  51.5943110  69.8701540  79.9403920
  51.3668760  70.6747310  81.2024570  66.4953540  74.6751390  77.2795400
  66.3852820  74.5207430  78.2177670  67.2561130  74.1472330  77.0370810
  67.3843810  72.5059310  70.5201540  68.3093120  72.3740490  70.3119830
  67.3619600  72.5852130  71.4737990  67.4582300  73.2769970  73.1458250
  66.6633800  73.2115090  73.6751160  67.6625580  74.2120610  73.1343600
  59.3381160  70.9043750  81.5507990  58.5552950  71.3789250  81.8304750
  59.0444090  69.9998580  81.4421170  63.8902230  71.6066850  79.5957080
  64.3310320  71.5511950  78.7478680  63.6209820  72.5224860  79.6667260
  65.7540800  71.2382090  77.6065900  65.6929200  70.2943310  77.4596920
  66.5332830  71.3462180  78.1519360  50.6821570  71.2091230  74.0721710
  51.4400930  71.3220110  73.4985740  50.2198740  72.0460430  74.0265140
  57.2235380  73.3230500  77.0624020  56.4109890  72.9487390  76.7219900
  57.7277020  72.5675580  77.3645210  61.7260360  69.9872950  78.3007090
  62.3289730  70.5593160  78.7755610  60.9853350  70.5512390  78.0780990
  64.8694960  70.3894510  73.5747370  65.0645590  71.2877960  73.8414800
  64.0824830  70.1581590  74.0680320  53.0546720  71.7355280  72.6123680
  53.5839480  70.9485080  72.4831630  53.6875040  72.4146470  72.8459210
  55.2484560  71.4730420  75.6669070  54.6187300  70.7717730  75.8339200
  54.7089700  72.2334550  75.4502230  60.8813730  78.1860450  59.0436770
  60.8007780  77.2715060  58.7728480  60.4678150  78.6827520  58.3376480
  59.0131770  79.9639470  60.9246040  58.2373870  79.4839910  61.2144610
  59.6644700  79.2845120  60.7502200  53.0297600  80.2759280  61.8021800
  52.1982480  80.0207990  62.2018310  53.6378580  80.3470050  62.5379720
  51.4389550  75.2361170  55.5864190  50.5506250  75.5777140  55.4844070
  51.7230740  75.0361490  54.6945020  49.4022560  77.8366820  61.4703890
  49.9738670  77.0689020  61.4707530  49.4024100  78.1355580  60.5610500
  50.6447430  73.2451180  63.2572820  50.4650270  72.3476930  63.5375580
  50.2427510  73.7923050  63.9319770  59.4845930  75.4467040  61.1585130
  59.8610750  74.5738920  61.0458800  59.3865440  75.7825740  60.2675570
  53.6150940  73.8192670  56.6202570  53.7217690  74.7196400  56.9271330
  52.7043300  73.7710640  56.3297220  63.2670050  72.9417480  58.0913470
  64.0879670  72.4514050  58.1338950  63.3004130  73.5315140  58.8445310
  51.2634100  75.7411680  61.8655160  51.9444210  76.0050050  62.4842560
  50.9482150  74.9012550  62.1993170  55.4558670  76.7879040  60.9527750
  55.9636890  77.2860010  61.5932770  55.9871910  76.0114240  60.7767110
  67.5569600  74.9584230  64.6557100  66.8521770  75.3465940  64.1372210
  67.8227520  75.6534520  65.2578030  53.7394770  71.4277600  65.2191170
  53.7413210  71.9449990  64.4137070  52.9099080  70.9507780  65.1961100
  63.5031530  74.8817860  60.8641010  62.7987100  75.1702750  61.4444120
  63.8643690  75.6917970  60.5040570  53.4210100  73.1387560  63.2261620
  53.7626910  73.9829610  62.9315490  52.4825910  73.2871300  63.3426960
  66.5718450  74.3272650  61.2550220  65.6243360  74.3611630  61.3865650
  66.8968440  75.1411600  61.6399580  57.1037990  70.6269830  59.5506210
  57.4112970  70.0716720  58.8341710  56.1738690  70.7614290  59.3679200
  59.4918750  78.6918660  56.2866330  58.5648030  78.6256040  56.5154800
  59.6443570  79.6298790  56.1721570  59.4787830  74.9635660  53.2833490
  58.5391500  75.1249620  53.3685950  59.7971090  75.6821340  52.7369480
  66.0000590  79.6454180  63.2612520  65.1719220  79.7147270  62.7862650
  66.5951070  80.2308490  62.7928350  63.5216040  80.2538960  56.7901580
  62.9028460  79.9158510  56.1427880  63.5040490  79.6098720  57.4980770
  62.9642600  76.4323500  64.2067390  62.5513780  77.2577210  64.4607380
  62.2318550  75.8468540  64.0143750  55.0975390  79.2183400  59.0686060
  54.6932390  78.5060650  58.5731960  55.1838510  78.8736640  59.9574100
  53.8104010  75.9926610  62.8485100  54.3618600  76.1021950  62.0738350
  54.3247520  76.3664210  63.5640330  61.6980740  79.4925770  53.7974330
  62.1374020  78.6548200  53.6512150  62.4109160  80.1255170  53.8838470
  53.4846740  79.5145970  66.4590440  53.3454510  80.3868770  66.8277840
  52.6028100  79.1718780  66.3138380  65.2797880  70.7468580  52.1115370
  64.9670540  70.8395410  53.0114440  66.0410350  71.3249610  52.0612800
  51.7980020  78.1128380  56.5692710  51.6777620  78.8390470  55.9573980
  51.4880910  77.3431290  56.0920620  66.4899170  75.4840080  68.0889510
  65.8743440  75.9919750  67.5604970  66.1695590  74.5838410  68.0315450
  54.2643680  71.4563450  59.9516380  53.8211830  72.2372990  59.6200900
  54.8228670  71.7793340  60.6587320  58.5513490  74.3231970  65.5551700
  58.0892860  74.5314990  66.3671640  58.1491600  73.5091320  65.2522370
  63.5518000  75.5440920  66.6848360  62.7011590  75.2446670  67.0057430
  63.3919790  75.7882930  65.7732180  60.6467710  77.0442670  68.7847150
  60.9721120  76.2106420  68.4449380  61.4348040  77.5671190  68.9325480
  57.3802500  71.0774150  54.8322210  56.7556680  71.0734020  55.5575520
  57.2932620  70.2105110  54.4358180  56.3019580  72.0010780  61.8105980
  56.5991910  72.9073610  61.7298000  56.8505140  71.5129560  61.1965550
  54.0557900  76.5797020  57.6797630  53.8298820  76.3634190  58.5844250
  53.2750430  77.0125480  57.3343600  61.2855660  76.5860390  56.2788280
  60.6864550  77.3096190  56.0951900  61.8335270  76.5237170  55.4964730
  56.4957110  77.4782600  68.3457900  56.4000710  76.5377330  68.1958300
  57.3389090  77.6997670  67.9505970  59.8920530  75.2223930  58.3091560
  60.2850100  75.5396130  57.4960250  60.2537380  74.3435810  58.4236080
  51.6267650  73.8896270  66.4991680  51.2331040  74.7371480  66.7064460
  50.9386050  73.2522640  66.6900320  58.2012700  73.9731240  69.5688420
  57.5111020  73.7803440  70.2034510  58.9445000  74.2565880  70.1012720
  48.9284700  71.8124730  60.5321760  48.6397750  72.3827590  61.2446740
  49.6730460  71.3329180  60.8952990  49.1154930  75.7544850  51.7424480
  49.0329600  76.6975610  51.8839470  48.7637990  75.6119760  50.8636830
  60.4775670  77.8129680  62.4042340  59.7456790  78.3216490  62.7532440
  60.0800010  76.9959660  62.1031120  56.9153060  74.4883880  60.8094830
  56.9189120  74.0473830  59.9599370  57.8104180  74.8101210  60.9166650
  52.7655440  74.3710370  59.7689040  52.4255490  74.8485600  60.5256090
  52.0032760  73.9175490  59.4090140  56.9773210  75.4895960  53.8001590
  57.0986030  75.4482440  54.7487410  56.5921720  76.3520110  53.6448320
  60.9401580  73.2663360  61.8165280  60.9574320  73.7172010  62.6607130
  60.6917160  72.3669000  62.0298720  55.9894710  77.7997100  53.1984890
  55.4211610  77.3515350  52.5720800  56.6983710  78.1589880  52.6650040
  64.3672330  70.6795540  67.6551660  64.6918100  69.9485200  68.1809640
  64.4028840  70.3609180  66.7532650  57.2161030  78.5485660  62.5560240
  57.5831160  78.0744230  63.3021580  57.0266090  79.4227230  62.8968580
  50.0801520  73.2929350  58.6853710  49.7948440  72.9285020  59.5232330
  50.0180380  72.5609810  58.0716850  55.0060400  77.5894300  64.8744450
  54.7017470  78.4686280  65.0994810  55.9606860  77.6494090  64.9101890
  59.7540110  72.1858610  55.4067080  58.9404720  71.6871780  55.3312390
  59.5602060  73.0256860  54.9903430  59.6748970  80.8629710  67.1506690
  59.6086280  79.9425380  66.8964280  59.0454110  80.9605150  67.8651330
  62.4688500  76.5578260  53.7029240  63.3568120  76.8695490  53.5280580
  62.4393590  75.6850510  53.3109820  51.0624130  78.4297040  66.0215810
  50.7039070  79.0950890  66.6089150  50.7678690  77.5980590  66.3928430
  54.2637250  78.8881280  68.9055360  53.9637390  79.0338460  68.0083180
  55.0348490  78.3286570  68.8128750  64.7402770  77.8690100  53.1709100
  64.6566490  78.3004320  52.3205540  65.4596960  78.3288450  53.6035920
  65.8176910  80.3257620  66.2479070  65.0925100  80.9186400  66.0508460
  66.3452370  80.3181160  65.4492440  49.5732180  78.4288300  52.6450410
  50.4427030  78.7113100  52.9286330  49.0822500  79.2424170  52.5299220
  56.7366990  79.8161510  56.7658690  57.1929770  80.6266760  56.9918880
  56.3855200  79.4984650  57.5977180  52.6378770  70.1599160  57.2381210
  52.5093400  70.1517060  58.1866130  51.8140790  70.4982250  56.8872220
  49.6372700  71.9190280  66.6987910  48.9231220  72.1187200  67.3040520
  50.0567740  71.1429850  67.0702710  51.5578690  80.2461770  54.7732470
  50.9506640  80.9860670  54.7827770  52.0328040  80.3361130  53.9470670
  61.1311480  74.4112590  64.4489360  61.4992300  73.5907800  64.7768930
  60.2709680  74.4714480  64.8645010  64.4973510  73.3669530  55.2576920
  63.8686670  73.4715200  54.5435150  64.0025430  73.5866310  56.0470800
  56.4657540  75.6455480  56.6734800  55.7573690  76.1141820  57.1148410
  56.7502020  74.9877490  57.3079990  58.0913470  77.0652180  64.6727330
  58.5898720  77.5398000  65.3379180  58.2336420  76.1415700  64.8797360
  60.4972970  72.3706140  58.1130590  60.3740750  72.3892270  57.1640100
  61.4457530  72.4185080  58.2328990  54.6692560  73.9540560  54.0485510
  55.5183090  74.3910710  53.9825700  54.3023830  74.2660820  54.8757570
  65.2980330  73.2820140  65.5155720  64.7953930  74.0225540  65.8549530
  66.1136990  73.6704140  65.1992510  63.5902340  78.5253320  58.9617080
  62.6492480  78.5403550  59.1364770  63.9046410  77.7389280  59.4077380
  53.5683980  80.2072920  52.5221040  54.3347250  80.0954280  53.0846470
  53.6458670  79.5110890  51.8697810  52.2630740  77.6397990  53.2053930
  52.3434330  76.6925500  53.3171330  53.1550490  77.9704870  53.3114590
  49.7901540  79.4612910  68.4410100  50.2940560  78.8820190  69.0126330
  49.0508960  79.7453140  68.9786470  51.8224620  77.6042500  69.3360170
  51.8629960  77.3056370  70.2445400  52.6770120  78.0050110  69.1767690
  55.6003010  80.2038050  54.4963680  56.0219430  80.0377920  55.3395070
  55.7253850  79.3938280  54.0018820  53.7630430  76.1834600  67.3034660
  53.2326890  75.6925550  66.6758000  54.4318500  76.6118800  66.7692590
  58.1130650  79.2275660  51.7440780  58.6336310  78.5124680  51.3781930
  58.7599050  79.8661530  52.0441290  62.6608490  80.6504060  67.0675850
  63.0749510  80.8049140  67.9166270  61.7259490  80.7759280  67.2301630
  63.1330660  77.9900220  69.0715000  63.7151430  77.2352540  68.9835480
  63.3092430  78.5207660  68.2946480  54.2502730  73.1496970  67.3831950
  54.1559600  72.5317720  66.6582820  53.6700120  73.8763260  67.1561860
  57.0164170  71.7070210  64.4159340  56.5681470  71.7294470  63.5704890
  56.3829370  71.3089230  65.0129640  59.7587620  78.3340720  66.4209620
  59.8783830  77.7381860  67.1604460  60.6181620  78.3710410  66.0010920
  62.0975520  78.8877910  64.9972130  61.5710740  79.4120530  64.3937270
  62.4406860  79.5205300  65.6281860  54.4961910  76.2771280  51.4421840
  54.2950970  75.4138640  51.8035180  54.3253960  76.1904640  50.5043440
  56.5256390  74.8762070  67.6785440  57.1156080  74.5677920  68.3663260
  55.7076630  74.4041820  67.8345340  61.3449820  74.4927880  67.9118460
  60.6565340  73.8309420  67.8468450  62.0655840  74.0466150  68.3566920
  61.9750220  71.0879510  53.9708720  62.2552510  70.2447410  54.3268140
  61.2015950  71.3202620  54.4847470  53.2944710  73.3771900  51.4299720
  53.5970610  73.3839330  50.5218870  54.0339300  73.0269760  51.9267380
  56.5129640  72.3206520  52.4155920  56.1651640  71.6430510  51.8358370
  56.7142410  71.8596030  53.2299310  66.3530940  80.3256240  54.5812630
  67.1149850  80.8952890  54.6872320  66.3685310  79.7583440  55.3520940
  49.8535280  78.8494170  58.8120290  49.1984120  78.5805810  58.1679990
  50.6913230  78.7398650  58.3622270  62.8025720  73.6435460  53.0338780
  63.2210600  73.4566440  52.1935440  62.4961780  72.7914510  53.3441710
  66.3015450  78.5559600  56.7314580  65.9259050  77.7887530  56.2995870
  65.5718570  78.9382300  57.2189510  50.8911210  79.2346740  63.3523630
  51.2584250  79.1474140  64.2319650  50.3222030  78.4713290  63.2530490
  65.6915070  77.7031120  66.3654100  65.4601160  77.4743870  65.4652050
  65.9519620  78.6230670  66.3198990  50.4427210  76.1455830  67.2582050
  49.5483260  76.1122590  67.5975760  50.9824760  76.3442620  68.0233300
  64.1303140  72.9287550  69.1433800  65.0073320  72.9370950  69.5267800
  64.1423980  72.1918390  68.5326150  49.0673360  76.0593100  54.7545620
  48.1637440  76.3223300  54.5797280  49.5513980  76.3304270  53.9745580
  65.5766410  76.7817090  60.0321820  66.1003890  76.2879740  59.4011990
  66.1625830  76.9167450  60.7769390  65.7556130  76.8656960  63.5541370
  64.8058840  76.8320500  63.6686360  65.9369140  77.7757070  63.3191140
  51.6100570  75.1158640  52.6640000  52.3192270  74.6941860  52.1787280
  50.8940510  75.1833870  52.0323350  51.2574730  71.1697970  51.7042650
  51.9802860  71.7106910  52.0223870  51.5299250  70.8961390  50.8284190
  65.0666380  76.0390440  55.9714230  65.5625500  75.8061310  56.7563110
  64.8682450  75.2002280  55.5551870  50.9466920  70.4204160  61.6065270
  51.5943110  69.8701540  61.1660430  51.3668760  70.6747310  62.4281080
  66.4953540  74.6751390  58.5051910  66.3852820  74.5207430  59.4434180
  67.2561130  74.1472330  58.2627320  64.8419260  70.6145520  64.9634910
  65.4791480  71.2279660  65.3294100  64.9894150  70.6506180  64.0184140
  67.3843810  72.5059310  51.7458050  68.3093120  72.3740490  51.5376340
  67.3619600  72.5852130  52.6994500  67.4582300  73.2769970  54.3714760
  66.6633800  73.2115090  54.9007670  67.6625580  74.2120610  54.3600110
  50.6998920  70.5759830  64.3490590  50.3513740  71.0323650  65.1148770
  50.3686620  69.6816960  64.4313020  58.2123740  71.7671710  67.8710010
  58.1512630  72.3593540  68.6205420  59.1524120  71.6597670  67.7260270
  60.8498300  71.4241770  67.5102300  61.4638710  71.7421060  66.8483380
  61.3947860  70.9390360  68.1298160  51.3719560  70.1036030  67.6241360
  51.9202550  69.9224080  66.8607470  51.4374870  69.3130140  68.1597670
  61.5906340  69.9873910  63.8371590  60.7166180  70.3209020  63.6344520
  61.4817090  69.5147090  64.6623460  62.4978320  72.1944780  65.2213310
  62.1691680  71.3796540  64.8415040  63.4460620  72.1514590  65.0979000
  59.3381160  70.9043750  62.7764500  58.5552950  71.3789250  63.0561260
  59.0444090  69.9998580  62.6677680  63.8902230  71.6066850  60.8213590
  64.3310320  71.5511950  59.9735190  63.6209820  72.5224860  60.8923770
  65.7540800  71.2382090  58.8322410  65.6929200  70.2943310  58.6853430
  66.5332830  71.3462180  59.3775870  50.6821570  71.2091230  55.2978220
  51.4400930  71.3220110  54.7242250  50.2198740  72.0460430  55.2521650
  57.2235380  73.3230500  58.2880530  56.4109890  72.9487390  57.9476410
  57.7277020  72.5675580  58.5901720  61.7260360  69.9872950  59.5263600
  62.3289730  70.5593160  60.0012120  60.9853350  70.5512390  59.3037500
  64.8694960  70.3894510  54.8003880  65.0645590  71.2877960  55.0671310
  64.0824830  70.1581590  55.2936830  53.0546720  71.7355280  53.8380190
  53.5839480  70.9485080  53.7088140  53.6875040  72.4146470  54.0715720
  55.2484560  71.4730420  56.8925580  54.6187300  70.7717730  57.0595710
  54.7089700  72.2334550  56.6758740  55.3740120  70.7514400  69.3278070
  55.0924390  71.2548000  68.5638890  55.7559820  69.9536150  68.9620200
  61.9755580  70.1667980  69.9058540  61.8621030  70.4862590  70.8010060
  62.7925320  70.5680490  69.6095820  60.8813730  78.1860450  40.2693280
  60.8007780  77.2715060  39.9984990  60.4678150  78.6827520  39.5632990
  59.0131770  79.9639470  42.1502550  58.2373870  79.4839910  42.4401120
  59.6644700  79.2845120  41.9758710  53.0297600  80.2759280  43.0278310
  52.1982480  80.0207990  43.4274820  53.6378580  80.3470050  43.7636230
  51.4389550  75.2361170  36.8120700  50.5506250  75.5777140  36.7100580
  51.7230740  75.0361490  35.9201530  49.4022560  77.8366820  42.6960400
  49.9738670  77.0689020  42.6964040  49.4024100  78.1355580  41.7867010
  50.6447430  73.2451180  44.4829330  50.4650270  72.3476930  44.7632090
  50.2427510  73.7923050  45.1576280  59.4845930  75.4467040  42.3841640
  59.8610750  74.5738920  42.2715310  59.3865440  75.7825740  41.4932080
  53.6150940  73.8192670  37.8459080  53.7217690  74.7196400  38.1527840
  52.7043300  73.7710640  37.5553730  63.2670050  72.9417480  39.3169980
  64.0879670  72.4514050  39.3595460  63.3004130  73.5315140  40.0701820
  51.2634100  75.7411680  43.0911670  51.9444210  76.0050050  43.7099070
  50.9482150  74.9012550  43.4249680  55.4558670  76.7879040  42.1784260
  55.9636890  77.2860010  42.8189280  55.9871910  76.0114240  42.0023620
  67.5569600  74.9584230  45.8813610  66.8521770  75.3465940  45.3628720
  67.8227520  75.6534520  46.4834540  53.7394770  71.4277600  46.4447680
  53.7413210  71.9449990  45.6393580  52.9099080  70.9507780  46.4217610
  63.5031530  74.8817860  42.0897520  62.7987100  75.1702750  42.6700630
  63.8643690  75.6917970  41.7297080  53.4210100  73.1387560  44.4518130
  53.7626910  73.9829610  44.1572000  52.4825910  73.2871300  44.5683470
  66.5718450  74.3272650  42.4806730  65.6243360  74.3611630  42.6122160
  66.8968440  75.1411600  42.8656090  59.4918750  78.6918660  37.5122840
  58.5648030  78.6256040  37.7411310  59.6443570  79.6298790  37.3978080
  59.4787830  74.9635660  34.5090000  58.5391500  75.1249620  34.5942460
  59.7971090  75.6821340  33.9625990  66.0000590  79.6454180  44.4869030
  65.1719220  79.7147270  44.0119160  66.5951070  80.2308490  44.0184860
  63.5216040  80.2538960  38.0158090  62.9028460  79.9158510  37.3684390
  63.5040490  79.6098720  38.7237280  62.9642600  76.4323500  45.4323900
  62.5513780  77.2577210  45.6863890  62.2318550  75.8468540  45.2400260
  55.0975390  79.2183400  40.2942570  54.6932390  78.5060650  39.7988470
  55.1838510  78.8736640  41.1830610  53.8104010  75.9926610  44.0741610
  54.3618600  76.1021950  43.2994860  54.3247520  76.3664210  44.7896840
  61.6980740  79.4925770  35.0230840  62.1374020  78.6548200  34.8768660
  62.4109160  80.1255170  35.1094980  53.4846740  79.5145970  47.6846950
  53.3454510  80.3868770  48.0534350  52.6028100  79.1718780  47.5394890
  65.2797880  70.7468580  33.3371880  64.9670540  70.8395410  34.2370950
  66.0410350  71.3249610  33.2869310  51.7980020  78.1128380  37.7949220
  51.6777620  78.8390470  37.1830490  51.4880910  77.3431290  37.3177130
  66.4899170  75.4840080  49.3146020  65.8743440  75.9919750  48.7861480
  66.1695590  74.5838410  49.2571960  54.2643680  71.4563450  41.1772890
  53.8211830  72.2372990  40.8457410  54.8228670  71.7793340  41.8843830
  58.5513490  74.3231970  46.7808210  58.0892860  74.5314990  47.5928150
  58.1491600  73.5091320  46.4778880  63.5518000  75.5440920  47.9104870
  62.7011590  75.2446670  48.2313940  63.3919790  75.7882930  46.9988690
  60.6467710  77.0442670  50.0103660  60.9721120  76.2106420  49.6705890
  61.4348040  77.5671190  50.1581990  57.3802500  71.0774150  36.0578720
  56.7556680  71.0734020  36.7832030  57.2932620  70.2105110  35.6614690
  56.3019580  72.0010780  43.0362490  56.5991910  72.9073610  42.9554510
  56.8505140  71.5129560  42.4222060  54.0557900  76.5797020  38.9054140
  53.8298820  76.3634190  39.8100760  53.2750430  77.0125480  38.5600110
  61.2855660  76.5860390  37.5044790  60.6864550  77.3096190  37.3208410
  61.8335270  76.5237170  36.7221240  56.4957110  77.4782600  49.5714410
  56.4000710  76.5377330  49.4214810  57.3389090  77.6997670  49.1762480
  59.8920530  75.2223930  39.5348070  60.2850100  75.5396130  38.7216760
  60.2537380  74.3435810  39.6492590  51.6267650  73.8896270  47.7248190
  51.2331040  74.7371480  47.9320970  50.9386050  73.2522640  47.9156830
  58.2012700  73.9731240  50.7944930  57.5111020  73.7803440  51.4291020
  58.9445000  74.2565880  51.3269230  48.9284700  71.8124730  41.7578270
  48.6397750  72.3827590  42.4703250  49.6730460  71.3329180  42.1209500
  49.1154930  75.7544850  32.9680990  49.0329600  76.6975610  33.1095980
  48.7637990  75.6119760  32.0893340  60.4775670  77.8129680  43.6298850
  59.7456790  78.3216490  43.9788950  60.0800010  76.9959660  43.3287630
  56.9153060  74.4883880  42.0351340  56.9189120  74.0473830  41.1855880
  57.8104180  74.8101210  42.1423160  52.7655440  74.3710370  40.9945550
  52.4255490  74.8485600  41.7512600  52.0032760  73.9175490  40.6346650
  56.9773210  75.4895960  35.0258100  57.0986030  75.4482440  35.9743920
  56.5921720  76.3520110  34.8704830  60.9401580  73.2663360  43.0421790
  60.9574320  73.7172010  43.8863640  60.6917160  72.3669000  43.2555230
  55.9894710  77.7997100  34.4241400  55.4211610  77.3515350  33.7977310
  56.6983710  78.1589880  33.8906550  64.3672330  70.6795540  48.8808170
  64.6918100  69.9485200  49.4066150  64.4028840  70.3609180  47.9789160
  57.2161030  78.5485660  43.7816750  57.5831160  78.0744230  44.5278090
  57.0266090  79.4227230  44.1225090  50.0801520  73.2929350  39.9110220
  49.7948440  72.9285020  40.7488840  50.0180380  72.5609810  39.2973360
  55.0060400  77.5894300  46.1000960  54.7017470  78.4686280  46.3251320
  55.9606860  77.6494090  46.1358400  59.7540110  72.1858610  36.6323590
  58.9404720  71.6871780  36.5568900  59.5602060  73.0256860  36.2159940
  59.6748970  80.8629710  48.3763200  59.6086280  79.9425380  48.1220790
  59.0454110  80.9605150  49.0907840  62.4688500  76.5578260  34.9285750
  63.3568120  76.8695490  34.7537090  62.4393590  75.6850510  34.5366330
  51.0624130  78.4297040  47.2472320  50.7039070  79.0950890  47.8345660
  50.7678690  77.5980590  47.6184940  54.2637250  78.8881280  50.1311870
  53.9637390  79.0338460  49.2339690  55.0348490  78.3286570  50.0385260
  64.7402770  77.8690100  34.3965610  64.6566490  78.3004320  33.5462050
  65.4596960  78.3288450  34.8292430  65.8176910  80.3257620  47.4735580
  65.0925100  80.9186400  47.2764970  66.3452370  80.3181160  46.6748950
  49.5732180  78.4288300  33.8706920  50.4427030  78.7113100  34.1542840
  49.0822500  79.2424170  33.7555730  56.7366990  79.8161510  37.9915200
  57.1929770  80.6266760  38.2175390  56.3855200  79.4984650  38.8233690
  52.6378770  70.1599160  38.4637720  52.5093400  70.1517060  39.4122640
  51.8140790  70.4982250  38.1128730  49.6372700  71.9190280  47.9244420
  48.9231220  72.1187200  48.5297030  50.0567740  71.1429850  48.2959220
  51.5578690  80.2461770  35.9988980  50.9506640  80.9860670  36.0084280
  52.0328040  80.3361130  35.1727180  61.1311480  74.4112590  45.6745870
  61.4992300  73.5907800  46.0025440  60.2709680  74.4714480  46.0901520
  64.4973510  73.3669530  36.4833430  63.8686670  73.4715200  35.7691660
  64.0025430  73.5866310  37.2727310  56.4657540  75.6455480  37.8991310
  55.7573690  76.1141820  38.3404920  56.7502020  74.9877490  38.5336500
  58.0913470  77.0652180  45.8983840  58.5898720  77.5398000  46.5635690
  58.2336420  76.1415700  46.1053870  60.4972970  72.3706140  39.3387100
  60.3740750  72.3892270  38.3896610  61.4457530  72.4185080  39.4585500
  54.6692560  73.9540560  35.2742020  55.5183090  74.3910710  35.2082210
  54.3023830  74.2660820  36.1014080  65.2980330  73.2820140  46.7412230
  64.7953930  74.0225540  47.0806040  66.1136990  73.6704140  46.4249020
  63.5902340  78.5253320  40.1873590  62.6492480  78.5403550  40.3621280
  63.9046410  77.7389280  40.6333890  53.5683980  80.2072920  33.7477550
  54.3347250  80.0954280  34.3102980  53.6458670  79.5110890  33.0954320
  52.2630740  77.6397990  34.4310440  52.3434330  76.6925500  34.5427840
  53.1550490  77.9704870  34.5371100  49.7901540  79.4612910  49.6666610
  50.2940560  78.8820190  50.2382840  49.0508960  79.7453140  50.2042980
  51.8224620  77.6042500  50.5616680  51.8629960  77.3056370  51.4701910
  52.6770120  78.0050110  50.4024200  55.6003010  80.2038050  35.7220190
  56.0219430  80.0377920  36.5651580  55.7253850  79.3938280  35.2275330
  53.7630430  76.1834600  48.5291170  53.2326890  75.6925550  47.9014510
  54.4318500  76.6118800  47.9949100  58.1130650  79.2275660  32.9697290
  58.6336310  78.5124680  32.6038440  58.7599050  79.8661530  33.2697800
  62.6608490  80.6504060  48.2932360  63.0749510  80.8049140  49.1422780
  61.7259490  80.7759280  48.4558140  63.1330660  77.9900220  50.2971510
  63.7151430  77.2352540  50.2091990  63.3092430  78.5207660  49.5202990
  54.2502730  73.1496970  48.6088460  54.1559600  72.5317720  47.8839330
  53.6700120  73.8763260  48.3818370  59.7587620  78.3340720  47.6466130
  59.8783830  77.7381860  48.3860970  60.6181620  78.3710410  47.2267430
  62.0975520  78.8877910  46.2228640  61.5710740  79.4120530  45.6193780
  62.4406860  79.5205300  46.8538370  54.4961910  76.2771280  32.6678350
  54.2950970  75.4138640  33.0291690  54.3253960  76.1904640  31.7299950
  56.5256390  74.8762070  48.9041950  57.1156080  74.5677920  49.5919770
  55.7076630  74.4041820  49.0601850  61.3449820  74.4927880  49.1374970
  60.6565340  73.8309420  49.0724960  62.0655840  74.0466150  49.5823430
  61.9750220  71.0879510  35.1965230  62.2552510  70.2447410  35.5524650
  61.2015950  71.3202620  35.7103980  53.2944710  73.3771900  32.6556230
  53.5970610  73.3839330  31.7475380  54.0339300  73.0269760  33.1523890
  56.5129640  72.3206520  33.6412430  56.1651640  71.6430510  33.0614880
  56.7142410  71.8596030  34.4555820  66.3530940  80.3256240  35.8069140
  67.1149850  80.8952890  35.9128830  66.3685310  79.7583440  36.5777450
  49.8535280  78.8494170  40.0376800  49.1984120  78.5805810  39.3936500
  50.6913230  78.7398650  39.5878780  62.8025720  73.6435460  34.2595290
  63.2210600  73.4566440  33.4191950  62.4961780  72.7914510  34.5698220
  66.3015450  78.5559600  37.9571090  65.9259050  77.7887530  37.5252380
  65.5718570  78.9382300  38.4446020  50.8911210  79.2346740  44.5780140
  51.2584250  79.1474140  45.4576160  50.3222030  78.4713290  44.4787000
  65.6915070  77.7031120  47.5910610  65.4601160  77.4743870  46.6908560
  65.9519620  78.6230670  47.5455500  50.4427210  76.1455830  48.4838560
  49.5483260  76.1122590  48.8232270  50.9824760  76.3442620  49.2489810
  64.1303140  72.9287550  50.3690310  65.0073320  72.9370950  50.7524310
  64.1423980  72.1918390  49.7582660  49.0673360  76.0593100  35.9802130
  48.1637440  76.3223300  35.8053790  49.5513980  76.3304270  35.2002090
  65.5766410  76.7817090  41.2578330  66.1003890  76.2879740  40.6268500
  66.1625830  76.9167450  42.0025900  65.7556130  76.8656960  44.7797880
  64.8058840  76.8320500  44.8942870  65.9369140  77.7757070  44.5447650
  51.6100570  75.1158640  33.8896510  52.3192270  74.6941860  33.4043790
  50.8940510  75.1833870  33.2579860  51.2574730  71.1697970  32.9299160
  51.9802860  71.7106910  33.2480380  51.5299250  70.8961390  32.0540700
  65.0666380  76.0390440  37.1970740  65.5625500  75.8061310  37.9819620
  64.8682450  75.2002280  36.7808380  50.9466920  70.4204160  42.8321780
  51.5943110  69.8701540  42.3916940  51.3668760  70.6747310  43.6537590
  66.4953540  74.6751390  39.7308420  66.3852820  74.5207430  40.6690690
  67.2561130  74.1472330  39.4883830  67.3843810  72.5059310  32.9714560
  68.3093120  72.3740490  32.7632850  67.3619600  72.5852130  33.9251010
  67.4582300  73.2769970  35.5971270  66.6633800  73.2115090  36.1264180
  67.6625580  74.2120610  35.5856620  50.6998920  70.5759830  45.5747100
  50.3513740  71.0323650  46.3405280  50.3686620  69.6816960  45.6569530
  51.3719560  70.1036030  48.8497870  51.9202550  69.9224080  48.0863980
  51.4374870  69.3130140  49.3854180  62.4978320  72.1944780  46.4469820
  62.1691680  71.3796540  46.0671550  63.4460620  72.1514590  46.3235510
  63.8902230  71.6066850  42.0470100  64.3310320  71.5511950  41.1991700
  63.6209820  72.5224860  42.1180280  65.7540800  71.2382090  40.0578920
  65.6929200  70.2943310  39.9109940  66.5332830  71.3462180  40.6032380
  50.6821570  71.2091230  36.5234730  51.4400930  71.3220110  35.9498760
  50.2198740  72.0460430  36.4778160  57.2235380  73.3230500  39.5137040
  56.4109890  72.9487390  39.1732920  57.7277020  72.5675580  39.8158230
  64.8694960  70.3894510  36.0260390  65.0645590  71.2877960  36.2927820
  64.0824830  70.1581590  36.5193340  53.0546720  71.7355280  35.0636700
  53.5839480  70.9485080  34.9344650  53.6875040  72.4146470  35.2972230
  55.2484560  71.4730420  38.1182090  54.6187300  70.7717730  38.2852220
  54.7089700  72.2334550  37.9015250  55.3740120  70.7514400  50.5534580
  55.0924390  71.2548000  49.7895400  55.7559820  69.9536150  50.1876710
  61.9755580  70.1667980  51.1315050  61.8621030  70.4862590  52.0266570
  62.7925320  70.5680490  50.8352330  60.8813730  78.1860450  21.4949790
  60.8007780  77.2715060  21.2241500  60.4678150  78.6827520  20.7889500
  59.0131770  79.9639470  23.3759060  58.2373870  79.4839910  23.6657630
  59.6644700  79.2845120  23.2015220  53.0297600  80.2759280  24.2534820
  52.1982480  80.0207990  24.6531330  53.6378580  80.3470050  24.9892740
  51.4389550  75.2361170  18.0377210  50.5506250  75.5777140  17.9357090
  51.7230740  75.0361490  17.1458040  49.4022560  77.8366820  23.9216910
  49.9738670  77.0689020  23.9220550  49.4024100  78.1355580  23.0123520
  50.6447430  73.2451180  25.7085840  50.4650270  72.3476930  25.9888600
  50.2427510  73.7923050  26.3832790  59.4845930  75.4467040  23.6098150
  59.8610750  74.5738920  23.4971820  59.3865440  75.7825740  22.7188590
  53.6150940  73.8192670  19.0715590  53.7217690  74.7196400  19.3784350
  52.7043300  73.7710640  18.7810240  63.2670050  72.9417480  20.5426490
  64.0879670  72.4514050  20.5851970  63.3004130  73.5315140  21.2958330
  51.2634100  75.7411680  24.3168180  51.9444210  76.0050050  24.9355580
  50.9482150  74.9012550  24.6506190  55.4558670  76.7879040  23.4040770
  55.9636890  77.2860010  24.0445790  55.9871910  76.0114240  23.2280130
  67.5569600  74.9584230  27.1070120  66.8521770  75.3465940  26.5885230
  67.8227520  75.6534520  27.7091050  53.7394770  71.4277600  27.6704190
  53.7413210  71.9449990  26.8650090  52.9099080  70.9507780  27.6474120
  63.5031530  74.8817860  23.3154030  62.7987100  75.1702750  23.8957140
  63.8643690  75.6917970  22.9553590  53.4210100  73.1387560  25.6774640
  53.7626910  73.9829610  25.3828510  52.4825910  73.2871300  25.7939980
  66.5718450  74.3272650  23.7063240  65.6243360  74.3611630  23.8378670
  66.8968440  75.1411600  24.0912600  57.1037990  70.6269830  22.0019230
  57.4112970  70.0716720  21.2854730  56.1738690  70.7614290  21.8192220
  59.4918750  78.6918660  18.7379350  58.5648030  78.6256040  18.9667820
  59.6443570  79.6298790  18.6234590  59.4787830  74.9635660  15.7346510
  58.5391500  75.1249620  15.8198970  59.7971090  75.6821340  15.1882500
  66.0000590  79.6454180  25.7125540  65.1719220  79.7147270  25.2375670
  66.5951070  80.2308490  25.2441370  63.5216040  80.2538960  19.2414600
  62.9028460  79.9158510  18.5940900  63.5040490  79.6098720  19.9493790
  62.9642600  76.4323500  26.6580410  62.5513780  77.2577210  26.9120400
  62.2318550  75.8468540  26.4656770  55.0975390  79.2183400  21.5199080
  54.6932390  78.5060650  21.0244980  55.1838510  78.8736640  22.4087120
  53.8104010  75.9926610  25.2998120  54.3618600  76.1021950  24.5251370
  54.3247520  76.3664210  26.0153350  61.6980740  79.4925770  16.2487350
  62.1374020  78.6548200  16.1025170  62.4109160  80.1255170  16.3351490
  53.4846740  79.5145970  28.9103460  53.3454510  80.3868770  29.2790860
  52.6028100  79.1718780  28.7651400  65.2797880  70.7468580  14.5628390
  64.9670540  70.8395410  15.4627460  66.0410350  71.3249610  14.5125820
  51.7980020  78.1128380  19.0205730  51.6777620  78.8390470  18.4087000
  51.4880910  77.3431290  18.5433640  66.4899170  75.4840080  30.5402530
  65.8743440  75.9919750  30.0117990  66.1695590  74.5838410  30.4828470
  54.2643680  71.4563450  22.4029400  53.8211830  72.2372990  22.0713920
  54.8228670  71.7793340  23.1100340  58.5513490  74.3231970  28.0064720
  58.0892860  74.5314990  28.8184660  58.1491600  73.5091320  27.7035390
  63.5518000  75.5440920  29.1361380  62.7011590  75.2446670  29.4570450
  63.3919790  75.7882930  28.2245200  60.6467710  77.0442670  31.2360170
  60.9721120  76.2106420  30.8962400  61.4348040  77.5671190  31.3838500
  57.3802500  71.0774150  17.2835230  56.7556680  71.0734020  18.0088540
  57.2932620  70.2105110  16.8871200  56.3019580  72.0010780  24.2619000
  56.5991910  72.9073610  24.1811020  56.8505140  71.5129560  23.6478570
  54.0557900  76.5797020  20.1310650  53.8298820  76.3634190  21.0357270
  53.2750430  77.0125480  19.7856620  61.2855660  76.5860390  18.7301300
  60.6864550  77.3096190  18.5464920  61.8335270  76.5237170  17.9477750
  56.4957110  77.4782600  30.7970920  56.4000710  76.5377330  30.6471320
  57.3389090  77.6997670  30.4018990  59.8920530  75.2223930  20.7604580
  60.2850100  75.5396130  19.9473270  60.2537380  74.3435810  20.8749100
  51.6267650  73.8896270  28.9504700  51.2331040  74.7371480  29.1577480
  50.9386050  73.2522640  29.1413340  58.2012700  73.9731240  32.0201440
  57.5111020  73.7803440  32.6547530  58.9445000  74.2565880  32.5525740
  48.9284700  71.8124730  22.9834780  48.6397750  72.3827590  23.6959760
  49.6730460  71.3329180  23.3466010  49.1154930  75.7544850  14.1937500
  49.0329600  76.6975610  14.3352490  48.7637990  75.6119760  13.3149850
  60.4775670  77.8129680  24.8555360  59.7456790  78.3216490  25.2045460
  60.0800010  76.9959660  24.5544140  56.9153060  74.4883880  23.2607850
  56.9189120  74.0473830  22.4112390  57.8104180  74.8101210  23.3679670
  52.7655440  74.3710370  22.2202060  52.4255490  74.8485600  22.9769110
  52.0032760  73.9175490  21.8603160  56.9773210  75.4895960  16.2514610
  57.0986030  75.4482440  17.2000430  56.5921720  76.3520110  16.0961340
  60.9401580  73.2663360  24.2678300  60.9574320  73.7172010  25.1120150
  60.6917160  72.3669000  24.4811740  55.9894710  77.7997100  15.6497910
  55.4211610  77.3515350  15.0233820  56.6983710  78.1589880  15.1163060
  64.3672330  70.6795540  30.1064680  64.6918100  69.9485200  30.6322660
  64.4028840  70.3609180  29.2045670  57.2161030  78.5485660  25.0073260
  57.5831160  78.0744230  25.7534600  57.0266090  79.4227230  25.3481600
  50.0801520  73.2929350  21.1366730  49.7948440  72.9285020  21.9745350
  50.0180380  72.5609810  20.5229870  55.0060400  77.5894300  27.3257470
  54.7017470  78.4686280  27.5507830  55.9606860  77.6494090  27.3614910
  59.7540110  72.1858610  17.8580100  58.9404720  71.6871780  17.7825410
  59.5602060  73.0256860  17.4416450  59.6748970  80.8629710  29.6019710
  59.6086280  79.9425380  29.3477300  59.0454110  80.9605150  30.3164350
  62.4688500  76.5578260  16.1542260  63.3568120  76.8695490  15.9793600
  62.4393590  75.6850510  15.7622840  51.0624130  78.4297040  28.4728830
  50.7039070  79.0950890  29.0602170  50.7678690  77.5980590  28.8441450
  54.2637250  78.8881280  31.3568380  53.9637390  79.0338460  30.4596200
  55.0348490  78.3286570  31.2641770  64.7402770  77.8690100  15.6222120
  64.6566490  78.3004320  14.7718560  65.4596960  78.3288450  16.0548940
  65.8176910  80.3257620  28.6992090  65.0925100  80.9186400  28.5021480
  66.3452370  80.3181160  27.9005460  49.5732180  78.4288300  15.0963430
  50.4427030  78.7113100  15.3799350  49.0822500  79.2424170  14.9812240
  56.7366990  79.8161510  19.2171710  57.1929770  80.6266760  19.4431900
  56.3855200  79.4984650  20.0490200  52.6378770  70.1599160  19.6894230
  52.5093400  70.1517060  20.6379150  51.8140790  70.4982250  19.3385240
  49.6372700  71.9190280  29.1500930  48.9231220  72.1187200  29.7553540
  50.0567740  71.1429850  29.5215730  51.5578690  80.2461770  17.2245490
  50.9506640  80.9860670  17.2340790  52.0328040  80.3361130  16.3983690
  61.1311480  74.4112590  26.9002380  61.4992300  73.5907800  27.2281950
  60.2709680  74.4714480  27.3158030  64.4973510  73.3669530  17.7089940
  63.8686670  73.4715200  16.9948170  64.0025430  73.5866310  18.4983820
  56.4657540  75.6455480  19.1247820  55.7573690  76.1141820  19.5661430
  56.7502020  74.9877490  19.7593010  58.0913470  77.0652180  27.1240350
  58.5898720  77.5398000  27.7892200  58.2336420  76.1415700  27.3310380
  60.4972970  72.3706140  20.5643610  60.3740750  72.3892270  19.6153120
  61.4457530  72.4185080  20.6842010  54.6692560  73.9540560  16.4998530
  55.5183090  74.3910710  16.4338720  54.3023830  74.2660820  17.3270590
  65.2980330  73.2820140  27.9668740  64.7953930  74.0225540  28.3062550
  66.1136990  73.6704140  27.6505530  63.5902340  78.5253320  21.4130100
  62.6492480  78.5403550  21.5877790  63.9046410  77.7389280  21.8590400
  53.5683980  80.2072920  14.9734060  54.3347250  80.0954280  15.5359490
  53.6458670  79.5110890  14.3210830  52.2630740  77.6397990  15.6566950
  52.3434330  76.6925500  15.7684350  53.1550490  77.9704870  15.7627610
  49.7901540  79.4612910  30.8923120  50.2940560  78.8820190  31.4639350
  49.0508960  79.7453140  31.4299490  51.8224620  77.6042500  31.7873190
  51.8629960  77.3056370  32.6958420  52.6770120  78.0050110  31.6280710
  55.6003010  80.2038050  16.9476700  56.0219430  80.0377920  17.7908090
  55.7253850  79.3938280  16.4531840  53.7630430  76.1834600  29.7547680
  53.2326890  75.6925550  29.1271020  54.4318500  76.6118800  29.2205610
  58.1130650  79.2275660  14.1953800  58.6336310  78.5124680  13.8294950
  58.7599050  79.8661530  14.4954310  62.6608490  80.6504060  29.5188870
  63.0749510  80.8049140  30.3679290  61.7259490  80.7759280  29.6814650
  63.1330660  77.9900220  31.5228020  63.7151430  77.2352540  31.4348500
  63.3092430  78.5207660  30.7459500  54.2502730  73.1496970  29.8344970
  54.1559600  72.5317720  29.1095840  53.6700120  73.8763260  29.6074880
  57.0164170  71.7070210  26.8672360  56.5681470  71.7294470  26.0217910
  56.3829370  71.3089230  27.4642660  59.7587620  78.3340720  28.8722640
  59.8783830  77.7381860  29.6117480  60.6181620  78.3710410  28.4523940
  62.0975520  78.8877910  27.4485150  61.5710740  79.4120530  26.8450290
  62.4406860  79.5205300  28.0794880  54.4961910  76.2771280  13.8934860
  54.2950970  75.4138640  14.2548200  54.3253960  76.1904640  12.9556460
  56.5256390  74.8762070  30.1298460  57.1156080  74.5677920  30.8176280
  55.7076630  74.4041820  30.2858360  61.3449820  74.4927880  30.3631480
  60.6565340  73.8309420  30.2981470  62.0655840  74.0466150  30.8079940
  61.9750220  71.0879510  16.4221740  62.2552510  70.2447410  16.7781160
  61.2015950  71.3202620  16.9360490  53.2944710  73.3771900  13.8812740
  53.5970610  73.3839330  12.9731890  54.0339300  73.0269760  14.3780400
  56.5129640  72.3206520  14.8668940  56.1651640  71.6430510  14.2871390
  56.7142410  71.8596030  15.6812330  66.3530940  80.3256240  17.0325650
  67.1149850  80.8952890  17.1385340  66.3685310  79.7583440  17.8033960
  49.8535280  78.8494170  21.2633310  49.1984120  78.5805810  20.6193010
  50.6913230  78.7398650  20.8135290  62.8025720  73.6435460  15.4851800
  63.2210600  73.4566440  14.6448460  62.4961780  72.7914510  15.7954730
  66.3015450  78.5559600  19.1827600  65.9259050  77.7887530  18.7508890
  65.5718570  78.9382300  19.6702530  50.8911210  79.2346740  25.8036650
  51.2584250  79.1474140  26.6832670  50.3222030  78.4713290  25.7043510
  65.6915070  77.7031120  28.8167120  65.4601160  77.4743870  27.9165070
  65.9519620  78.6230670  28.7712010  50.4427210  76.1455830  29.7095070
  49.5483260  76.1122590  30.0488780  50.9824760  76.3442620  30.4746320
  64.1303140  72.9287550  31.5946820  65.0073320  72.9370950  31.9780820
  64.1423980  72.1918390  30.9839170  49.0673360  76.0593100  17.2058640
  48.1637440  76.3223300  17.0310300  49.5513980  76.3304270  16.4258600
  65.5766410  76.7817090  22.4834840  66.1003890  76.2879740  21.8525010
  66.1625830  76.9167450  23.2282410  65.7556130  76.8656960  26.0054390
  64.8058840  76.8320500  26.1199380  65.9369140  77.7757070  25.7704160
  51.6100570  75.1158640  15.1153020  52.3192270  74.6941860  14.6300300
  50.8940510  75.1833870  14.4836370  51.2574730  71.1697970  14.1555670
  51.9802860  71.7106910  14.4736890  51.5299250  70.8961390  13.2797210
  65.0666380  76.0390440  18.4227250  65.5625500  75.8061310  19.2076130
  64.8682450  75.2002280  18.0064890  50.9466920  70.4204160  24.0578290
  51.5943110  69.8701540  23.6173450  51.3668760  70.6747310  24.8794100
  66.4953540  74.6751390  20.9564930  66.3852820  74.5207430  21.8947200
  67.2561130  74.1472330  20.7140340  64.8419260  70.6145520  27.4147930
  65.4791480  71.2279660  27.7807120  64.9894150  70.6506180  26.4697160
  67.3843810  72.5059310  14.1971070  68.3093120  72.3740490  13.9889360
  67.3619600  72.5852130  15.1507520  67.4582300  73.2769970  16.8227780
  66.6633800  73.2115090  17.3520690  67.6625580  74.2120610  16.8113130
  50.6998920  70.5759830  26.8003610  50.3513740  71.0323650  27.5661790
  50.3686620  69.6816960  26.8826040  58.2123740  71.7671710  30.3223030
  58.1512630  72.3593540  31.0718440  59.1524120  71.6597670  30.1773290
  60.8498300  71.4241770  29.9615320  61.4638710  71.7421060  29.2996400
  61.3947860  70.9390360  30.5811180  51.3719560  70.1036030  30.0754380
  51.9202550  69.9224080  29.3120490  51.4374870  69.3130140  30.6110690
  61.5906340  69.9873910  26.2884610  60.7166180  70.3209020  26.0857540
  61.4817090  69.5147090  27.1136480  62.4978320  72.1944780  27.6726330
  62.1691680  71.3796540  27.2928060  63.4460620  72.1514590  27.5492020
  59.3381160  70.9043750  25.2277520  58.5552950  71.3789250  25.5074280
  59.0444090  69.9998580  25.1190700  63.8902230  71.6066850  23.2726610
  64.3310320  71.5511950  22.4248210  63.6209820  72.5224860  23.3436790
  65.7540800  71.2382090  21.2835430  65.6929200  70.2943310  21.1366450
  66.5332830  71.3462180  21.8288890  50.6821570  71.2091230  17.7491240
  51.4400930  71.3220110  17.1755270  50.2198740  72.0460430  17.7034670
  57.2235380  73.3230500  20.7393550  56.4109890  72.9487390  20.3989430
  57.7277020  72.5675580  21.0414740  61.7260360  69.9872950  21.9776620
  62.3289730  70.5593160  22.4525140  60.9853350  70.5512390  21.7550520
  64.8694960  70.3894510  17.2516900  65.0645590  71.2877960  17.5184330
  64.0824830  70.1581590  17.7449850  53.0546720  71.7355280  16.2893210
  53.5839480  70.9485080  16.1601160  53.6875040  72.4146470  16.5228740
  55.2484560  71.4730420  19.3438600  54.6187300  70.7717730  19.5108730
  54.7089700  72.2334550  19.1271760  55.3740120  70.7514400  31.7791090
  55.0924390  71.2548000  31.0151910  55.7559820  69.9536150  31.4133220
  61.9755580  70.1667980  32.3571560  61.8621030  70.4862590  33.2523080
  62.7925320  70.5680490  32.0608840  60.8813730  78.1860450   2.7206300
  60.8007780  77.2715060   2.4498010  60.4678150  78.6827520   2.0146010
  59.0131770  79.9639470   4.6015570  58.2373870  79.4839910   4.8914140
  59.6644700  79.2845120   4.4271730  53.0297600  80.2759280   5.4791330
  52.1982480  80.0207990   5.8787840  53.6378580  80.3470050   6.2149250
  49.4022560  77.8366820   5.1473420  49.9738670  77.0689020   5.1477060
  49.4024100  78.1355580   4.2380030  50.6447430  73.2451180   6.9342350
  50.4650270  72.3476930   7.2145110  50.2427510  73.7923050   7.6089300
  59.4845930  75.4467040   4.8354660  59.8610750  74.5738920   4.7228330
  59.3865440  75.7825740   3.9445100  63.2670050  72.9417480   1.7683000
  64.0879670  72.4514050   1.8108480  63.3004130  73.5315140   2.5214840
  51.2634100  75.7411680   5.5424690  51.9444210  76.0050050   6.1612090
  50.9482150  74.9012550   5.8762700  55.4558670  76.7879040   4.6297280
  55.9636890  77.2860010   5.2702300  55.9871910  76.0114240   4.4536640
  67.5569600  74.9584230   8.3326630  66.8521770  75.3465940   7.8141740
  67.8227520  75.6534520   8.9347560  53.7394770  71.4277600   8.8960700
  53.7413210  71.9449990   8.0906600  52.9099080  70.9507780   8.8730630
  63.5031530  74.8817860   4.5410540  62.7987100  75.1702750   5.1213650
  63.8643690  75.6917970   4.1810100  53.4210100  73.1387560   6.9031150
  53.7626910  73.9829610   6.6085020  52.4825910  73.2871300   7.0196490
  66.5718450  74.3272650   4.9319750  65.6243360  74.3611630   5.0635180
  66.8968440  75.1411600   5.3169110  57.1037990  70.6269830   3.2275740
  57.4112970  70.0716720   2.5111240  56.1738690  70.7614290   3.0448730
  66.0000590  79.6454180   6.9382050  65.1719220  79.7147270   6.4632180
  66.5951070  80.2308490   6.4697880  62.9642600  76.4323500   7.8836920
  62.5513780  77.2577210   8.1376910  62.2318550  75.8468540   7.6913280
  55.0975390  79.2183400   2.7455590  54.6932390  78.5060650   2.2501490
  55.1838510  78.8736640   3.6343630  53.8104010  75.9926610   6.5254630
  54.3618600  76.1021950   5.7507880  54.3247520  76.3664210   7.2409860
  53.4846740  79.5145970  10.1359970  53.3454510  80.3868770  10.5047370
  52.6028100  79.1718780   9.9907910  66.4899170  75.4840080  11.7659040
  65.8743440  75.9919750  11.2374500  66.1695590  74.5838410  11.7084980
  54.2643680  71.4563450   3.6285910  53.8211830  72.2372990   3.2970430
  54.8228670  71.7793340   4.3356850  58.5513490  74.3231970   9.2321230
  58.0892860  74.5314990  10.0441170  58.1491600  73.5091320   8.9291900
  63.5518000  75.5440920  10.3617890  62.7011590  75.2446670  10.6826960
  63.3919790  75.7882930   9.4501710  60.6467710  77.0442670  12.4616680
  60.9721120  76.2106420  12.1218910  61.4348040  77.5671190  12.6095010
  56.3019580  72.0010780   5.4875510  56.5991910  72.9073610   5.4067530
  56.8505140  71.5129560   4.8735080  56.4957110  77.4782600  12.0227430
  56.4000710  76.5377330  11.8727830  57.3389090  77.6997670  11.6275500
  51.6267650  73.8896270  10.1761210  51.2331040  74.7371480  10.3833990
  50.9386050  73.2522640  10.3669850  58.2012700  73.9731240  13.2457950
  57.5111020  73.7803440  13.8804040  58.9445000  74.2565880  13.7782250
  48.9284700  71.8124730   4.2091290  48.6397750  72.3827590   4.9216270
  49.6730460  71.3329180   4.5722520  60.4775670  77.8129680   6.0811870
  59.7456790  78.3216490   6.4301970  60.0800010  76.9959660   5.7800650
  56.9153060  74.4883880   4.4864360  56.9189120  74.0473830   3.6368900
  57.8104180  74.8101210   4.5936180  52.7655440  74.3710370   3.4458570
  52.4255490  74.8485600   4.2025620  52.0032760  73.9175490   3.0859670
  60.9401580  73.2663360   5.4934810  60.9574320  73.7172010   6.3376660
  60.6917160  72.3669000   5.7068250  64.3672330  70.6795540  11.3321190
  64.6918100  69.9485200  11.8579170  64.4028840  70.3609180  10.4302180
  57.2161030  78.5485660   6.2329770  57.5831160  78.0744230   6.9791110
  57.0266090  79.4227230   6.5738110  50.0801520  73.2929350   2.3623240
  49.7948440  72.9285020   3.2001860  50.0180380  72.5609810   1.7486380
  55.0060400  77.5894300   8.5513980  54.7017470  78.4686280   8.7764340
  55.9606860  77.6494090   8.5871420  59.6748970  80.8629710  10.8276220
  59.6086280  79.9425380  10.5733810  59.0454110  80.9605150  11.5420860
  51.0624130  78.4297040   9.6985340  50.7039070  79.0950890  10.2858680
  50.7678690  77.5980590  10.0697960  54.2637250  78.8881280  12.5824890
  53.9637390  79.0338460  11.6852710  55.0348490  78.3286570  12.4898280
  65.8176910  80.3257620   9.9248600  65.0925100  80.9186400   9.7277990
  66.3452370  80.3181160   9.1261970  49.6372700  71.9190280  10.3757440
  48.9231220  72.1187200  10.9810050  50.0567740  71.1429850  10.7472240
  61.1311480  74.4112590   8.1258890  61.4992300  73.5907800   8.4538460
  60.2709680  74.4714480   8.5414540  58.0913470  77.0652180   8.3496860
  58.5898720  77.5398000   9.0148710  58.2336420  76.1415700   8.5566890
  65.2980330  73.2820140   9.1925250  64.7953930  74.0225540   9.5319060
  66.1136990  73.6704140   8.8762040  63.5902340  78.5253320   2.6386610
  62.6492480  78.5403550   2.8134300  63.9046410  77.7389280   3.0846910
  49.7901540  79.4612910  12.1179630  50.2940560  78.8820190  12.6895860
  49.0508960  79.7453140  12.6556000  51.8224620  77.6042500  13.0129700
  51.8629960  77.3056370  13.9214930  52.6770120  78.0050110  12.8537220
  53.7630430  76.1834600  10.9804190  53.2326890  75.6925550  10.3527530
  54.4318500  76.6118800  10.4462120  62.6608490  80.6504060  10.7445380
  63.0749510  80.8049140  11.5935800  61.7259490  80.7759280  10.9071160
  63.1330660  77.9900220  12.7484530  63.7151430  77.2352540  12.6605010
  63.3092430  78.5207660  11.9716010  54.2502730  73.1496970  11.0601480
  54.1559600  72.5317720  10.3352350  53.6700120  73.8763260  10.8331390
  57.0164170  71.7070210   8.0928870  56.5681470  71.7294470   7.2474420
  56.3829370  71.3089230   8.6899170  59.7587620  78.3340720  10.0979150
  59.8783830  77.7381860  10.8373990  60.6181620  78.3710410   9.6780450
  62.0975520  78.8877910   8.6741660  61.5710740  79.4120530   8.0706800
  62.4406860  79.5205300   9.3051390  56.5256390  74.8762070  11.3554970
  57.1156080  74.5677920  12.0432790  55.7076630  74.4041820  11.5114870
  61.3449820  74.4927880  11.5887990  60.6565340  73.8309420  11.5237980
  62.0655840  74.0466150  12.0336450  49.8535280  78.8494170   2.4889820
  49.1984120  78.5805810   1.8449520  50.6913230  78.7398650   2.0391800
  50.8911210  79.2346740   7.0293160  51.2584250  79.1474140   7.9089180
  50.3222030  78.4713290   6.9300020  65.6915070  77.7031120  10.0423630
  65.4601160  77.4743870   9.1421580  65.9519620  78.6230670   9.9968520
  50.4427210  76.1455830  10.9351580  49.5483260  76.1122590  11.2745290
  50.9824760  76.3442620  11.7002830  64.1303140  72.9287550  12.8203330
  65.0073320  72.9370950  13.2037330  64.1423980  72.1918390  12.2095680
  65.5766410  76.7817090   3.7091350  66.1003890  76.2879740   3.0781520
  66.1625830  76.9167450   4.4538920  65.7556130  76.8656960   7.2310900
  64.8058840  76.8320500   7.3455890  65.9369140  77.7757070   6.9960670
  50.9466920  70.4204160   5.2834800  51.5943110  69.8701540   4.8429960
  51.3668760  70.6747310   6.1050610  66.4953540  74.6751390   2.1821440
  66.3852820  74.5207430   3.1203710  67.2561130  74.1472330   1.9396850
  64.8419260  70.6145520   8.6404440  65.4791480  71.2279660   9.0063630
  64.9894150  70.6506180   7.6953670  50.6998920  70.5759830   8.0260120
  50.3513740  71.0323650   8.7918300  50.3686620  69.6816960   8.1082550
  58.2123740  71.7671710  11.5479540  58.1512630  72.3593540  12.2974950
  59.1524120  71.6597670  11.4029800  60.8498300  71.4241770  11.1871830
  61.4638710  71.7421060  10.5252910  61.3947860  70.9390360  11.8067690
  51.3719560  70.1036030  11.3010890  51.9202550  69.9224080  10.5377000
  51.4374870  69.3130140  11.8367200  61.5906340  69.9873910   7.5141120
  60.7166180  70.3209020   7.3114050  61.4817090  69.5147090   8.3392990
  62.4978320  72.1944780   8.8982840  62.1691680  71.3796540   8.5184570
  63.4460620  72.1514590   8.7748530  59.3381160  70.9043750   6.4534030
  58.5552950  71.3789250   6.7330790  59.0444090  69.9998580   6.3447210
  63.8902230  71.6066850   4.4983120  64.3310320  71.5511950   3.6504720
  63.6209820  72.5224860   4.5693300  65.7540800  71.2382090   2.5091940
  65.6929200  70.2943310   2.3622960  66.5332830  71.3462180   3.0545400
  61.7260360  69.9872950   3.2033130  62.3289730  70.5593160   3.6781650
  60.9853350  70.5512390   2.9807030  55.3740120  70.7514400  13.0047600
  55.0924390  71.2548000  12.2408420  55.7559820  69.9536150  12.6389730
  61.9755580  70.1667980  13.5828070  61.8621030  70.4862590  14.4779590
  62.7925320  70.5680490  13.2865350  60.8813730  59.4116960  77.8180260
  60.8007780  58.4971570  77.5471970  60.4678150  59.9084030  77.1119970
  59.0131770  61.1895980  79.6989530  58.2373870  60.7096420  79.9888100
  59.6644700  60.5101630  79.5245690  53.0297600  61.5015790  80.5765290
  52.1982480  61.2464500  80.9761800  53.6378580  61.5726560  81.3123210
  63.0339200  65.5956170  78.4788660  62.5720730  64.8243410  78.8075830
  63.8464750  65.6222240  78.9841110  53.0098860  65.5355880  80.7723310
  53.3126900  64.6453620  80.5933530  53.7542450  66.0926100  80.5445560
  51.4389550  56.4617680  74.3607680  50.5506250  56.8033650  74.2587560
  51.7230740  56.2618000  73.4688510  49.4022560  59.0623330  80.2447380
  49.9738670  58.2945530  80.2451020  49.4024100  59.3612090  79.3353990
  59.2602510  67.8814180  78.0992650  58.6413950  68.3371680  77.5287090
  60.1154290  68.0365640  77.6982350  58.4540760  63.8653170  79.7059690
  58.3849040  62.9243110  79.5448820  59.2160620  63.9554580  80.2782260
  59.4845930  56.6723550  79.9328620  59.8610750  55.7995430  79.8202290
  59.3865440  57.0082250  79.0419060  53.6150940  55.0449180  75.3946060
  53.7217690  55.9452910  75.7014820  52.7043300  54.9967150  75.1040710
  63.2670050  54.1673990  76.8656960  64.0879670  53.6770560  76.9082440
  63.3004130  54.7571650  77.6188800  51.2634100  56.9668190  80.6398650
  51.9444210  57.2306560  81.2586050  50.9482150  56.1269060  80.9736660
  55.4558670  58.0135550  79.7271240  55.9636890  58.5116520  80.3676260
  55.9871910  57.2370750  79.5510600  60.1265860  62.7653420  75.4924560
  59.5083130  63.2302870  74.9287280  60.6389110  63.4580900  75.9094070
  63.5031530  56.1074370  79.6384500  62.7987100  56.3959260  80.2187610
  63.8643690  56.9174480  79.2784060  49.4949060  63.4509950  72.8664190
  49.1177040  63.9397050  72.1349090  49.7522130  64.1235230  73.4970720
  65.1194310  65.7249500  81.9011980  64.4357830  66.3948610  81.8928650
  65.6588600  65.9230150  81.1356840  66.5718450  55.5529160  80.0293710
  65.6243360  55.5868140  80.1609140  66.8968440  56.3668110  80.4143070
  57.1037990  51.8526340  78.3249700  57.4112970  51.2973230  77.6085200
  56.1738690  51.9870800  78.1422690  62.6553050  67.5693630  80.6157160
  62.6680210  67.1655920  79.7479420  62.1028270  68.3440920  80.5118590
  63.9498470  64.2909850  75.7047330  63.8394800  63.3484180  75.8296750
  63.9466720  64.6525490  76.5910090  59.4918750  59.9175170  75.0609820
  58.5648030  59.8512550  75.2898290  59.6443570  60.8555300  74.9465060
  59.4787830  56.1892170  72.0576980  58.5391500  56.3506130  72.1429440
  59.7971090  56.9077850  71.5112970  66.0000590  60.8710690  82.0356010
  65.1719220  60.9403780  81.5606140  66.5951070  61.4565000  81.5671840
  63.5216040  61.4795470  75.5645070  62.9028460  61.1415020  74.9171370
  63.5040490  60.8355230  76.2724260  55.0975390  60.4439910  77.8429550
  54.6932390  59.7317160  77.3475450  55.1838510  60.0993150  78.7317590
  55.5657090  64.1307470  80.0068760  55.2685380  63.5252940  79.3276540
  56.5156910  64.1684780  79.8958120  61.6980740  60.7182280  72.5717820
  62.1374020  59.8804710  72.4255640  62.4109160  61.3511680  72.6581960
  59.8076120  65.6578350  76.5399060  60.2472030  66.4002680  76.1254450
  59.7463010  65.9004920  77.4638020  65.2797880  51.9725090  70.8858860
  64.9670540  52.0651920  71.7857930  66.0410350  52.5506120  70.8356290
  51.7980020  59.3384890  75.3436200  51.6777620  60.0646980  74.7317470
  51.4880910  58.5687800  74.8664110  49.4365390  62.5100030  81.1504840
  49.5145810  62.6448800  80.2060560  50.0507070  61.8015920  81.3432960
  50.6813020  64.2100220  77.5611020  50.2741100  64.3514810  76.7064620
  51.5726030  63.9260380  77.3582230  62.4746300  68.6447470  73.8962070
  62.3147440  68.3550410  74.7943900  62.3093010  67.8687600  73.3607300
  54.9534680  68.4246000  75.6733690  54.7777160  67.5081540  75.4601490
  54.0990420  68.7833290  75.9131490  62.1772430  66.1535030  72.4560070
  61.4837590  66.1512320  71.7962350  62.9195290  65.7294350  72.0254240
  61.7422360  67.7797740  76.5308560  62.1979310  66.9987120  76.8447180
  62.0814880  68.4904560  77.0749740  54.2643680  52.6819960  78.7259870
  53.8211830  53.4629500  78.3944390  54.8228670  53.0049850  79.4330810
  57.3802500  52.3030660  73.6065700  56.7556680  52.2990530  74.3319010
  57.2932620  51.4361620  73.2101670  56.3019580  53.2267290  80.5849470
  56.5991910  54.1330120  80.5041490  56.8505140  52.7386070  79.9709040
  54.0557900  57.8053530  76.4541120  53.8298820  57.5890700  77.3587740
  53.2750430  58.2381990  76.1087090  61.2855660  57.8116900  75.0531770
  60.6864550  58.5352700  74.8695390  61.8335270  57.7493680  74.2708220
  59.8920530  56.4480440  77.0835050  60.2850100  56.7652640  76.2703740
  60.2537380  55.5692320  77.1979570  48.9284700  53.0381240  79.3065250
  48.6397750  53.6084100  80.0190230  49.6730460  52.5585690  79.6696480
  49.1154930  56.9801360  70.5167970  49.0329600  57.9232120  70.6582960
  48.7637990  56.8376270  69.6380320  60.4775670  59.0386190  81.1785830
  59.7456790  59.5473000  81.5275930  60.0800010  58.2216170  80.8774610
  56.9153060  55.7140390  79.5838320  56.9189120  55.2730340  78.7342860
  57.8104180  56.0357720  79.6910140  52.7655440  55.5966880  78.5432530
  52.4255490  56.0742110  79.2999580  52.0032760  55.1432000  78.1833630
  56.9773210  56.7152470  72.5745080  57.0986030  56.6738950  73.5230900
  56.5921720  57.5776620  72.4191810  60.9401580  54.4919870  80.5908770
  60.9574320  54.9428520  81.4350620  60.6917160  53.5925510  80.8042210
  55.9894710  59.0253610  71.9728380  55.4211610  58.5771860  71.3464290
  56.6983710  59.3846390  71.4393530  50.0801520  54.5185860  77.4597200
  49.7948440  54.1541530  78.2975820  50.0180380  53.7866320  76.8460340
  53.5342190  63.0211800  74.2454790  52.7604450  62.4809420  74.0853510
  54.2636820  62.5018410  73.9072550  64.2930170  62.0177160  80.0381180
  65.0129290  62.5132450  79.6477290  64.0911990  61.3395050  79.3935050
  59.7540110  53.4115120  74.1810570  58.9404720  52.9128290  74.1055880
  59.5602060  54.2513370  73.7646920  62.4688500  57.7834770  72.4772730
  63.3568120  58.0952000  72.3024070  62.4393590  56.9107020  72.0853310
  53.5779590  62.6892180  77.8833600  54.0958260  61.8860440  77.8290490
  53.1263610  62.6271320  78.7250430  58.4649090  63.9558460  73.1560900
  58.8064790  64.7000690  72.6604220  57.6361800  64.2689580  73.5185730
  64.7402770  59.0946610  71.9452590  64.6566490  59.5260830  71.0949030
  65.4596960  59.5544960  72.3779410  65.7690020  65.9488870  74.6734720
  65.1266180  65.2944490  74.9478440  65.3820680  66.3543960  73.8975390
  61.3476500  63.2774300  78.5206410  61.7000320  62.6802430  77.8607780
  60.4638830  62.9518530  78.6914660  57.4339780  64.0371990  75.9276820
  58.1210910  64.5841200  76.3084410  56.6472200  64.5812720  75.9626430
  49.5732180  59.6544810  71.4193900  50.4427030  59.9369610  71.7029820
  49.0822500  60.4680680  71.3042710  56.7366990  61.0418020  75.5402180
  57.1929770  61.8523270  75.7662370  56.3855200  60.7241160  76.3720670
  52.6378770  51.3855670  76.0124700  52.5093400  51.3773570  76.9609620
  51.8140790  51.7238760  75.6615710  60.3131680  64.5556710  81.4871930
  60.9553910  63.8549870  81.6004100  60.8381030  65.3355150  81.3068820
  64.1587400  64.8405330  71.2111070  63.9324980  64.1235770  71.8035710
  63.7683600  64.5917770  70.3732820  49.9403430  68.8672190  71.9855530
  50.3001070  69.4661530  71.3312800  49.7995770  69.4132080  72.7590560
  63.7403650  62.7577270  72.8725230  63.4525350  63.2189960  73.6603110
  64.5355820  62.2975040  73.1409450  55.9572050  66.2503390  72.8029200
  55.9482150  66.9833080  72.1873710  55.0370410  66.0034970  72.8956160
  51.5578690  61.4718280  73.5475960  50.9506640  62.2117180  73.5571260
  52.0328040  61.5617640  72.7214160  64.4973510  54.5926040  74.0320410
  63.8686670  54.6971710  73.3178640  64.0025430  54.8122820  74.8214290
  58.9431650  66.3131630  71.4654390  59.0443630  66.1095620  70.5356370
  58.0433390  66.0589910  71.6702170  56.4657540  56.8711990  75.4478290
  55.7573690  57.3398330  75.8891900  56.7502020  56.2134000  76.0823480
  60.4972970  53.5962650  76.8874080  60.3740750  53.6148780  75.9383590
  61.4457530  53.6441590  77.0072480  57.5849760  68.8317950  76.1602060
  57.8391260  68.7939340  75.2381430  56.6362240  68.7051280  76.1530310
  54.6692560  55.1797070  72.8229000  55.5183090  55.6167220  72.7569190
  54.3023830  55.4917330  73.6501060  63.5902340  59.7509830  77.7360570
  62.6492480  59.7660060  77.9108260  63.9046410  58.9645790  78.1820870
  53.5683980  61.4329430  71.2964530  54.3347250  61.3210790  71.8589960
  53.6458670  60.7367400  70.6441300  52.2630740  58.8654500  71.9797420
  52.3434330  57.9182010  72.0914820  53.1550490  59.1961380  72.0858080
  65.5927920  66.9218680  79.4114830  65.7175340  67.7449850  79.8838640
  66.4593480  66.7109410  79.0638980  53.0645450  69.0149890  79.0831960
  53.8007930  68.4665350  79.3540530  53.4486370  69.8805900  78.9437950
  49.9490930  65.0823460  74.9573470  49.0230710  65.3244600  74.9478880
  50.4147360  65.9097720  74.8358220  56.1747760  68.1880200  70.9057530
  56.9676370  68.4769030  70.4539320  55.6552110  67.7572370  70.2270010
  65.2277930  67.4150330  72.3294270  64.9419440  67.0015470  71.5148450
  65.0297480  68.3438040  72.2094790  56.6925160  63.4083610  70.7699880
  56.5875800  62.7935960  71.4961260  56.5249380  62.8849500  69.9862890
  59.9327890  62.4703640  71.3741870  59.3837990  62.9172940  72.0184610
  60.5547150  61.9652890  71.8979540  55.6003010  61.4294560  73.2707170
  56.0219430  61.2634430  74.1138560  55.7253850  60.6194790  72.7762310
  58.1130650  60.4532170  70.5184270  58.6336310  59.7381190  70.1525420
  58.7599050  61.0918040  70.8184780  54.4961910  57.5027790  70.2165330
  54.2950970  56.6395150  70.5778670  54.3253960  57.4161150  69.2786930
  61.9750220  52.3136020  72.7452210  62.2552510  51.4703920  73.1011630
  61.2015950  52.5459130  73.2590960  53.2944710  54.6028410  70.2043210
  53.5970610  54.6095840  69.2962360  54.0339300  54.2526270  70.7010870
  56.5129640  53.5463030  71.1899410  56.1651640  52.8687020  70.6101860
  56.7142410  53.0852540  72.0042800  58.6778680  68.5343780  72.8086010
  59.5729470  68.8728750  72.8304770  58.7096310  67.8123190  72.1810290
  52.3174840  63.9070830  71.0373010  52.7549710  64.4500500  71.6930590
  52.8022570  63.0817780  71.0469350  49.5320640  66.6959860  78.4893270
  49.8623650  65.8280920  78.2571910  49.9611640  66.9018380  79.3198230
  54.1282560  65.0268870  76.1495240  53.8278100  64.9033840  77.0499150
  54.0220050  64.1677460  75.7410970  66.8974480  64.8065270  70.8521920
  66.0667440  64.8741920  71.3229150  67.0746310  65.6969390  70.5488780
  66.3530940  61.5512750  73.3556120  67.1149850  62.1209400  73.4615810
  66.3685310  60.9839950  74.1264430  49.8535280  60.0750680  77.5863780
  49.1984120  59.8062320  76.9423480  50.6913230  59.9655160  77.1365760
  67.3590910  62.4062850  78.1998050  67.7299740  61.6230170  77.7934020
  67.9992840  63.0951950  78.0215350  66.4050110  61.8447120  70.5128640
  66.6798950  62.7526000  70.3847860  66.2160850  61.7809650  71.4490630
  62.8025720  54.8691970  71.8082270  63.2210600  54.6822950  70.9678930
  62.4961780  54.0171020  72.1185200  66.3015450  59.7816110  75.5058070
  65.9259050  59.0144040  75.0739360  65.5718570  60.1638810  75.9933000
  49.0673360  57.2849610  73.5289110  48.1637440  57.5479810  73.3540770
  49.5513980  57.5560780  72.7489070  65.5766410  58.0073600  78.8065310
  66.1003890  57.5136250  78.1755480  66.1625830  58.1423960  79.5512880
  51.6100570  56.3415150  71.4383490  52.3192270  55.9198370  70.9530770
  50.8940510  56.4090380  70.8066840  51.2574730  52.3954480  70.4786140
  51.9802860  52.9363420  70.7967360  51.5299250  52.1217900  69.6027680
  65.0666380  57.2646950  74.7457720  65.5625500  57.0317820  75.5306600
  64.8682450  56.4258790  74.3295360  50.9466920  51.6460670  80.3808760
  51.5943110  51.0958050  79.9403920  51.3668760  51.9003820  81.2024570
  66.4953540  55.9007900  77.2795400  66.3852820  55.7463940  78.2177670
  67.2561130  55.3728840  77.0370810  67.3843810  53.7315820  70.5201540
  68.3093120  53.5997000  70.3119830  67.3619600  53.8108640  71.4737990
  67.4582300  54.5026480  73.1458250  66.6633800  54.4371600  73.6751160
  67.6625580  55.4377120  73.1343600  64.4000720  68.5418030  77.1396640
  64.9959790  68.2202600  76.4631060  64.6578870  68.0689850  77.9309910
  64.9512930  69.1913330  80.9694370  64.4915900  69.9429140  80.5952390
  64.3225390  68.4719800  80.9109170  55.3808650  67.5001570  80.1442500
  55.8973670  66.8888930  79.6190760  56.0306030  68.0030350  80.6353510
  58.1204150  68.3910060  80.9711480  58.4081960  68.1364360  80.0944490
  58.6327370  67.8387420  81.5617050  59.3381160  52.1300260  81.5507990
  58.5552950  52.6045760  81.8304750  59.0444090  51.2255090  81.4421170
  63.8902230  52.8323360  79.5957080  64.3310320  52.7768460  78.7478680
  63.6209820  53.7481370  79.6667260  65.7540800  52.4638600  77.6065900
  65.6929200  51.5199820  77.4596920  66.5332830  52.5718690  78.1519360
  50.0593550  68.6030960  76.5689850  49.8915590  67.9701640  77.2671740
  49.1928060  68.8090360  76.2184040  50.6821570  52.4347740  74.0721710
  51.4400930  52.5476620  73.4985740  50.2198740  53.2716940  74.0265140
  57.2235380  54.5487010  77.0624020  56.4109890  54.1743900  76.7219900
  57.7277020  53.7932090  77.3645210  61.7260360  51.2129460  78.3007090
  62.3289730  51.7849670  78.7755610  60.9853350  51.7768900  78.0780990
  64.8694960  51.6151020  73.5747370  65.0645590  52.5134470  73.8414800
  64.0824830  51.3838100  74.0680320  51.6656250  67.2964190  74.0139990
  51.1403870  67.6772220  73.3101950  51.5900830  67.9214960  74.7349700
  53.0546720  52.9611790  72.6123680  53.5839480  52.1741590  72.4831630
  53.6875040  53.6402980  72.8459210  55.2484560  52.6986930  75.6669070
  54.6187300  51.9974240  75.8339200  54.7089700  53.4591060  75.4502230
  66.4221570  68.8551730  75.3353930  66.5973760  68.1689470  74.6914850
  65.7243140  69.3798780  74.9430600  54.2649220  69.2446570  72.8889240
  54.9968040  68.9605850  72.3413130  54.5242890  69.0059850  73.7788620
  53.4264010  65.3611300  72.8935570  52.7972890  65.8296400  73.4421400
  53.5411840  64.5160520  73.3281760  60.8813730  59.4116960  59.0436770
  60.8007780  58.4971570  58.7728480  60.4678150  59.9084030  58.3376480
  59.0131770  61.1895980  60.9246040  58.2373870  60.7096420  61.2144610
  59.6644700  60.5101630  60.7502200  53.0297600  61.5015790  61.8021800
  52.1982480  61.2464500  62.2018310  53.6378580  61.5726560  62.5379720
  63.0339200  65.5956170  59.7045170  62.5720730  64.8243410  60.0332340
  63.8464750  65.6222240  60.2097620  53.0098860  65.5355880  61.9979820
  53.3126900  64.6453620  61.8190040  53.7542450  66.0926100  61.7702070
  59.2602510  67.8814180  59.3249160  58.6413950  68.3371680  58.7543600
  60.1154290  68.0365640  58.9238860  58.4540760  63.8653170  60.9316200
  58.3849040  62.9243110  60.7705330  59.2160620  63.9554580  61.5038770
  59.4845930  56.6723550  61.1585130  59.8610750  55.7995430  61.0458800
  59.3865440  57.0082250  60.2675570  63.2670050  54.1673990  58.0913470
  64.0879670  53.6770560  58.1338950  63.3004130  54.7571650  58.8445310
  51.2634100  56.9668190  61.8655160  51.9444210  57.2306560  62.4842560
  50.9482150  56.1269060  62.1993170  55.4558670  58.0135550  60.9527750
  55.9636890  58.5116520  61.5932770  55.9871910  57.2370750  60.7767110
  67.5569600  56.1840740  64.6557100  66.8521770  56.5722450  64.1372210
  67.8227520  56.8791030  65.2578030  60.1265860  62.7653420  56.7181070
  59.5083130  63.2302870  56.1543790  60.6389110  63.4580900  57.1350580
  54.9897620  62.2929290  63.3964670  54.6567000  62.9198210  64.0385740
  55.1664300  62.8191170  62.6166340  63.5031530  56.1074370  60.8641010
  62.7987100  56.3959260  61.4444120  63.8643690  56.9174480  60.5040570
  54.2016720  64.2610090  65.2113850  54.8190720  64.9361170  64.9298300
  53.3409840  64.6698070  65.1201350  65.1194310  65.7249500  63.1268490
  64.4357830  66.3948610  63.1185160  65.6588600  65.9230150  62.3613350
  66.5718450  55.5529160  61.2550220  65.6243360  55.5868140  61.3865650
  66.8968440  56.3668110  61.6399580  62.6553050  67.5693630  61.8413670
  62.6680210  67.1655920  60.9735930  62.1028270  68.3440920  61.7375100
  63.9498470  64.2909850  56.9303840  63.8394800  63.3484180  57.0553260
  63.9466720  64.6525490  57.8166600  62.0538490  62.4723470  63.1696280
  62.4707280  62.2583580  62.3349740  62.7778310  62.7296260  63.7404900
  66.0000590  60.8710690  63.2612520  65.1719220  60.9403780  62.7862650
  66.5951070  61.4565000  62.7928350  63.5216040  61.4795470  56.7901580
  62.9028460  61.1415020  56.1427880  63.5040490  60.8355230  57.4980770
  62.9642600  57.6580010  64.2067390  62.5513780  58.4833720  64.4607380
  62.2318550  57.0725050  64.0143750  55.5657090  64.1307470  61.2325270
  55.2685380  63.5252940  60.5533050  56.5156910  64.1684780  61.1214630
  53.8104010  57.2183120  62.8485100  54.3618600  57.3278460  62.0738350
  54.3247520  57.5920720  63.5640330  63.6542700  67.7039340  64.8948370
  63.1773260  68.5111530  64.7020980  62.9704490  67.0517670  65.0474580
  54.6575520  63.8689160  67.8833070  53.7604050  64.0929130  68.1306470
  54.6828390  63.9924100  66.9344470  61.6980740  60.7182280  53.7974330
  62.1374020  59.8804710  53.6512150  62.4109160  61.3511680  53.8838470
  53.4846740  60.7402480  66.4590440  53.3454510  61.6125280  66.8277840
  52.6028100  60.3975290  66.3138380  59.8076120  65.6578350  57.7655570
  60.2472030  66.4002680  57.3510960  59.7463010  65.9004920  58.6894530
  55.2827090  66.6824180  68.6675590  55.2542520  67.0867130  67.8004020
  55.1192060  65.7534540  68.5047190  65.2797880  51.9725090  52.1115370
  64.9670540  52.0651920  53.0114440  66.0410350  52.5506120  52.0612800
  67.2341910  67.4651280  69.9639760  67.7101630  67.9434170  70.6428840
  67.8549070  67.3968770  69.2385260  49.4365390  62.5100030  62.3761350
  49.5145810  62.6448800  61.4317070  50.0507070  61.8015920  62.5689470
  50.6813020  64.2100220  58.7867530  50.2741100  64.3514810  57.9321130
  51.5726030  63.9260380  58.5838740  66.6375160  64.6564130  67.1239770
  66.7638220  64.4176010  66.2056950  66.6796540  63.8248670  67.5961850
  60.4991900  68.3592130  65.6934580  61.0136570  68.2700140  66.4957010
  59.6560980  68.7051830  65.9862490  62.4746300  68.6447470  55.1218580
  62.3147440  68.3550410  56.0200410  62.3093010  67.8687600  54.5863810
  54.9534680  68.4246000  56.8990200  54.7777160  67.5081540  56.6858000
  54.0990420  68.7833290  57.1388000  61.7422360  67.7797740  57.7565070
  62.1979310  66.9987120  58.0703690  62.0814880  68.4904560  58.3006250
  66.4899170  56.7096590  68.0889510  65.8743440  57.2176260  67.5604970
  66.1695590  55.8094920  68.0315450  49.4924910  63.5514200  64.9155810
  49.6555950  63.0819560  64.0975180  49.9577360  63.0437760  65.5804650
  58.5513490  55.5488480  65.5551700  58.0892860  55.7571500  66.3671640
  58.1491600  54.7347830  65.2522370  63.5518000  56.7697430  66.6848360
  62.7011590  56.4703180  67.0057430  63.3919790  57.0139440  65.7732180
  60.6467710  58.2699180  68.7847150  60.9721120  57.4362930  68.4449380
  61.4348040  58.7927700  68.9325480  61.2855660  57.8116900  56.2788280
  60.6864550  58.5352700  56.0951900  61.8335270  57.7493680  55.4964730
  56.4957110  58.7039110  68.3457900  56.4000710  57.7633840  68.1958300
  57.3389090  58.9254180  67.9505970  59.8920530  56.4480440  58.3091560
  60.2850100  56.7652640  57.4960250  60.2537380  55.5692320  58.4236080
  58.2012700  55.1987750  69.5688420  57.5111020  55.0059950  70.2034510
  58.9445000  55.4822390  70.1012720  60.4775670  59.0386190  62.4042340
  59.7456790  59.5473000  62.7532440  60.0800010  58.2216170  62.1031120
  56.9153060  55.7140390  60.8094830  56.9189120  55.2730340  59.9599370
  57.8104180  56.0357720  60.9166650  60.9401580  54.4919870  61.8165280
  60.9574320  54.9428520  62.6607130  60.6917160  53.5925510  62.0298720
  64.3672330  51.9052050  67.6551660  64.6918100  51.1741710  68.1809640
  64.4028840  51.5865690  66.7532650  51.0663890  62.9265630  67.0751620
  50.6818680  62.2859300  67.6734580  51.3776080  63.6301750  67.6446350
  57.2161030  59.7742170  62.5560240  57.5831160  59.3000740  63.3021580
  57.0266090  60.6483740  62.8968580  55.0060400  58.8150810  64.8744450
  54.7017470  59.6942790  65.0994810  55.9606860  58.8750600  64.9101890
  64.2930170  62.0177160  61.2637690  65.0129290  62.5132450  60.8733800
  64.0911990  61.3395050  60.6191560  59.6748970  62.0886220  67.1506690
  59.6086280  61.1681890  66.8964280  59.0454110  62.1861660  67.8651330
  62.4688500  57.7834770  53.7029240  63.3568120  58.0952000  53.5280580
  62.4393590  56.9107020  53.3109820  53.5779590  62.6892180  59.1090110
  54.0958260  61.8860440  59.0547000  53.1263610  62.6271320  59.9506940
  51.0624130  59.6553550  66.0215810  50.7039070  60.3207400  66.6089150
  50.7678690  58.8237100  66.3928430  54.2637250  60.1137790  68.9055360
  53.9637390  60.2594970  68.0083180  55.0348490  59.5543080  68.8128750
  59.6065700  64.9106790  66.9010490  59.6210240  63.9787750  66.6829400
  58.8990800  64.9966550  67.5400260  64.7402770  59.0946610  53.1709100
  64.6566490  59.5260830  52.3205540  65.4596960  59.5544960  53.6035920
  65.8176910  61.5514130  66.2479070  65.0925100  62.1442910  66.0508460
  66.3452370  61.5437670  65.4492440  65.7690020  65.9488870  55.8991230
  65.1266180  65.2944490  56.1734950  65.3820680  66.3543960  55.1231900
  61.3476500  63.2774300  59.7462920  61.7000320  62.6802430  59.0864290
  60.4638830  62.9518530  59.9171170  57.4339780  64.0371990  57.1533330
  58.1210910  64.5841200  57.5340920  56.6472200  64.5812720  57.1882940
  59.0399600  66.5524360  63.9950990  59.6841820  66.7583740  64.6724410
  59.4029040  65.7912760  63.5421840  60.3131680  64.5556710  62.7128440
  60.9553910  63.8549870  62.8260610  60.8381030  65.3355150  62.5325330
  62.0869300  65.3551610  65.9164500  62.4225540  65.9418300  66.5942420
  61.1669640  65.2244320  66.1462290  49.9403430  68.8672190  53.2112040
  50.3001070  69.4661530  52.5569310  49.7995770  69.4132080  53.9847070
  63.7403650  62.7577270  54.0981740  63.4525350  63.2189960  54.8859620
  64.5355820  62.2975040  54.3665960  49.9245290  67.1327050  67.6854440
  50.0336410  66.1921790  67.5449830  49.2725850  67.3981800  67.0368170
  57.9157880  65.4042940  69.0852560  57.5954750  64.6852180  69.6298250
  57.2416240  66.0798010  69.1588620  55.9572050  66.2503390  54.0285710
  55.9482150  66.9833080  53.4130220  55.0370410  66.0034970  54.1212670
  61.1311480  55.6369100  64.4489360  61.4992300  54.8164310  64.7768930
  60.2709680  55.6970990  64.8645010  64.4973510  54.5926040  55.2576920
  63.8686670  54.6971710  54.5435150  64.0025430  54.8122820  56.0470800
  58.0913470  58.2908690  64.6727330  58.5898720  58.7654510  65.3379180
  58.2336420  57.3672210  64.8797360  60.4972970  53.5962650  58.1130590
  60.3740750  53.6148780  57.1640100  61.4457530  53.6441590  58.2328990
  57.5849760  68.8317950  57.3858570  57.8391260  68.7939340  56.4637940
  56.6362240  68.7051280  57.3786820  65.2980330  54.5076650  65.5155720
  64.7953930  55.2482050  65.8549530  66.1136990  54.8960650  65.1992510
  63.5902340  59.7509830  58.9617080  62.6492480  59.7660060  59.1364770
  63.9046410  58.9645790  59.4077380  65.5927920  66.9218680  60.6371340
  65.7175340  67.7449850  61.1095150  66.4593480  66.7109410  60.2895490
  53.0645450  69.0149890  60.3088470  53.8007930  68.4665350  60.5797040
  53.4486370  69.8805900  60.1694460  49.9490930  65.0823460  56.1829980
  49.0230710  65.3244600  56.1735390  50.4147360  65.9097720  56.0614730
  52.0703730  68.1995960  69.4974050  52.8716460  68.5208010  69.9109450
  51.5555550  67.8391540  70.2193960  56.1747760  68.1880200  52.1314040
  56.9676370  68.4769030  51.6795830  55.6552110  67.7572370  51.4526520
  60.9068360  64.3075830  69.4449460  60.3006520  64.3307430  68.7045210
  60.6022470  63.5758870  69.9816710  62.3368730  68.0356120  68.0558870
  63.2890480  67.9514140  68.0059110  62.1896950  68.6997830  68.7292660
  65.2277930  67.4150330  53.5550780  64.9419440  67.0015470  52.7404960
  65.0297480  68.3438040  53.4351300  49.7901540  60.6869420  68.4410100
  50.2940560  60.1076700  69.0126330  49.0508960  60.9709650  68.9786470
  56.8439480  62.0940410  67.9745620  56.0785150  62.6625410  67.8900290
  57.0255440  61.8016620  67.0813850  63.9862830  63.8245740  68.5320640
  64.7272300  64.1621500  68.0288100  63.2235510  63.9937800  67.9790410
  51.8224620  58.8299010  69.3360170  51.8629960  58.5312880  70.2445400
  52.6770120  59.2306620  69.1767690  53.7630430  57.4091110  67.3034660
  53.2326890  56.9182060  66.6758000  54.4318500  57.8375310  66.7692590
  62.6608490  61.8760570  67.0675850  63.0749510  62.0305650  67.9166270
  61.7259490  62.0015790  67.2301630  63.1330660  59.2156730  69.0715000
  63.7151430  58.4609050  68.9835480  63.3092430  59.7464170  68.2946480
  54.2502730  54.3753480  67.3831950  54.1559600  53.7574230  66.6582820
  53.6700120  55.1019770  67.1561860  57.4223720  61.8281050  65.0371780
  57.8411830  62.6713780  64.8648020  56.5032350  61.9653090  64.8078560
  59.7587620  59.5597230  66.4209620  59.8783830  58.9638370  67.1604460
  60.6181620  59.5966920  66.0010920  62.0975520  60.1134420  64.9972130
  61.5710740  60.6377040  64.3937270  62.4406860  60.7461810  65.6281860
  55.2731140  68.1334060  66.1529510  54.7352230  68.8580120  65.8338210
  55.5265100  67.6564400  65.3626850  56.5256390  56.1018580  67.6785440
  57.1156080  55.7934430  68.3663260  55.7076630  55.6298330  67.8345340
  61.3449820  55.7184390  67.9118460  60.6565340  55.0565930  67.8468450
  62.0655840  55.2722660  68.3566920  61.9750220  52.3136020  53.9708720
  62.2552510  51.4703920  54.3268140  61.2015950  52.5459130  54.4847470
  58.1293350  69.3685270  66.4116160  58.0552050  70.2720410  66.7188530
  57.2272190  69.0497170  66.3838230  58.6778680  68.5343780  54.0342520
  59.5729470  68.8728750  54.0561280  58.7096310  67.8123190  53.4066800
  52.3174840  63.9070830  52.2629520  52.7549710  64.4500500  52.9187100
  52.8022570  63.0817780  52.2725860  49.5320640  66.6959860  59.7149780
  49.8623650  65.8280920  59.4828420  49.9611640  66.9018380  60.5454740
  54.1282560  65.0268870  57.3751750  53.8278100  64.9033840  58.2755660
  54.0220050  64.1677460  56.9667480  50.0210850  67.5630450  62.4531410
  49.5841840  67.7431250  63.2855560  50.5888530  68.3205070  62.3113130
  65.6573030  67.0647450  66.7408720  65.0575020  67.1240010  65.9972640
  65.7866930  66.1252430  66.8705570  66.8974480  64.8065270  52.0778430
  66.0667440  64.8741920  52.5485660  67.0746310  65.6969390  51.7745290
  66.3530940  61.5512750  54.5812630  67.1149850  62.1209400  54.6872320
  66.3685310  60.9839950  55.3520940  67.3590910  62.4062850  59.4254560
  67.7299740  61.6230170  59.0190530  67.9992840  63.0951950  59.2471860
  64.3424670  63.7899430  64.8384880  63.5284510  64.2196590  65.1010670
  64.7498870  64.4017840  64.2253930  66.4050110  61.8447120  51.7385150
  66.6798950  62.7526000  51.6104370  66.2160850  61.7809650  52.6747140
  66.3015450  59.7816110  56.7314580  65.9259050  59.0144040  56.2995870
  65.5718570  60.1638810  57.2189510  50.8911210  60.4603250  63.3523630
  51.2584250  60.3730650  64.2319650  50.3222030  59.6969800  63.2530490
  65.6915070  58.9287630  66.3654100  65.4601160  58.7000380  65.4652050
  65.9519620  59.8487180  66.3198990  50.4427210  57.3712340  67.2582050
  49.5483260  57.3379100  67.5975760  50.9824760  57.5699130  68.0233300
  64.1303140  54.1544060  69.1433800  65.0073320  54.1627460  69.5267800
  64.1423980  53.4174900  68.5326150  65.5766410  58.0073600  60.0321820
  66.1003890  57.5136250  59.4011990  66.1625830  58.1423960  60.7769390
  65.7556130  58.0913470  63.5541370  64.8058840  58.0577010  63.6686360
  65.9369140  59.0013580  63.3191140  65.0666380  57.2646950  55.9714230
  65.5625500  57.0317820  56.7563110  64.8682450  56.4258790  55.5551870
  66.4953540  55.9007900  58.5051910  66.3852820  55.7463940  59.4434180
  67.2561130  55.3728840  58.2627320  64.8419260  51.8402030  64.9634910
  65.4791480  52.4536170  65.3294100  64.9894150  51.8762690  64.0184140
  67.3843810  53.7315820  51.7458050  68.3093120  53.5997000  51.5376340
  67.3619600  53.8108640  52.6994500  67.4582300  54.5026480  54.3714760
  66.6633800  54.4371600  54.9007670  67.6625580  55.4377120  54.3600110
  64.4000720  68.5418030  58.3653150  64.9959790  68.2202600  57.6887570
  64.6578870  68.0689850  59.1566420  52.3063290  64.9735940  68.5143780
  52.2632920  64.6028850  69.3958240  52.4374300  65.9113510  68.6545600
  56.0069320  66.5295530  64.1153500  55.7660680  66.7970090  63.2284020
  56.9471960  66.7001260  64.1704360  58.2123740  52.9928220  67.8710010
  58.1512630  53.5850050  68.6205420  59.1524120  52.8854180  67.7260270
  60.8498300  52.6498280  67.5102300  61.4638710  52.9677570  66.8483380
  61.3947860  52.1646870  68.1298160  67.2673480  68.5489910  64.9164140
  66.7731760  68.9458780  64.1991270  66.6586770  67.9239120  65.3101420
  51.3719560  51.3292540  67.6241360  51.9202550  51.1480590  66.8607470
  51.4374870  50.5386650  68.1597670  52.1451320  67.9198190  65.6341560
  51.5511640  67.7882890  66.3731600  52.1375160  67.0836330  65.1683660
  61.5906340  51.2130420  63.8371590  60.7166180  51.5465530  63.6344520
  61.4817090  50.7403600  64.6623460  62.4978320  53.4201290  65.2213310
  62.1691680  52.6053050  64.8415040  63.4460620  53.3771100  65.0979000
  64.9512930  69.1913330  62.1950880  64.4915900  69.9429140  61.8208900
  64.3225390  68.4719800  62.1365680  51.7763550  65.2856570  64.5849600
  51.0497610  64.6661860  64.5175550  51.8372700  65.6797180  63.7147680
  55.3808650  67.5001570  61.3699010  55.8973670  66.8888930  60.8447270
  56.0306030  68.0030350  61.8610020  58.1204150  68.3910060  62.1967990
  58.4081960  68.1364360  61.3201000  58.6327370  67.8387420  62.7873560
  59.3381160  52.1300260  62.7764500  58.5552950  52.6045760  63.0561260
  59.0444090  51.2255090  62.6677680  63.8902230  52.8323360  60.8213590
  64.3310320  52.7768460  59.9735190  63.6209820  53.7481370  60.8923770
  65.7540800  52.4638600  58.8322410  65.6929200  51.5199820  58.6853430
  66.5332830  52.5718690  59.3775870  50.0593550  68.6030960  57.7946360
  49.8915590  67.9701640  58.4928250  49.1928060  68.8090360  57.4440550
  57.2235380  54.5487010  58.2880530  56.4109890  54.1743900  57.9476410
  57.7277020  53.7932090  58.5901720  61.7260360  51.2129460  59.5263600
  62.3289730  51.7849670  60.0012120  60.9853350  51.7768900  59.3037500
  64.8694960  51.6151020  54.8003880  65.0645590  52.5134470  55.0671310
  64.0824830  51.3838100  55.2936830  51.6656250  67.2964190  55.2396500
  51.1403870  67.6772220  54.5358460  51.5900830  67.9214960  55.9606210
  58.1876510  69.3126160  69.5636190  59.1143820  69.0770430  69.6072150
  58.1726940  70.1398160  69.0822220  66.4221570  68.8551730  56.5610440
  66.5973760  68.1689470  55.9171360  65.7243140  69.3798780  56.1687110
  55.3740120  51.9770910  69.3278070  55.0924390  52.4804510  68.5638890
  55.7559820  51.1792660  68.9620200  54.2649220  69.2446570  54.1145750
  54.9968040  68.9605850  53.5669640  54.5242890  69.0059850  55.0045130
  53.4264010  65.3611300  54.1192080  52.7972890  65.8296400  54.6677910
  53.5411840  64.5160520  54.5538270  61.9755580  51.3924490  69.9058540
  61.8621030  51.7119100  70.8010060  62.7925320  51.7937000  69.6095820
  64.7554070  68.5396020  69.3877230  65.5479390  68.0445250  69.1803190
  65.0487220  69.2186160  69.9952840  67.5569600  56.1840740  45.8813610
  66.8521770  56.5722450  45.3628720  67.8227520  56.8791030  46.4834540
  49.4949060  63.4509950  35.3177210  49.1177040  63.9397050  34.5862110
  49.7522130  64.1235230  35.9483740  66.5718450  55.5529160  42.4806730
  65.6243360  55.5868140  42.6122160  66.8968440  56.3668110  42.8656090
  59.4787830  56.1892170  34.5090000  58.5391500  56.3506130  34.5942460
  59.7971090  56.9077850  33.9625990  61.6980740  60.7182280  35.0230840
  62.1374020  59.8804710  34.8768660  62.4109160  61.3511680  35.1094980
  65.2797880  51.9725090  33.3371880  64.9670540  52.0651920  34.2370950
  66.0410350  52.5506120  33.2869310  67.2341910  67.4651280  51.1896270
  67.7101630  67.9434170  51.8685350  67.8549070  67.3968770  50.4641770
  49.4365390  62.5100030  43.6017860  49.5145810  62.6448800  42.6573580
  50.0507070  61.8015920  43.7945980  50.6813020  64.2100220  40.0124040
  50.2741100  64.3514810  39.1577640  51.5726030  63.9260380  39.8095250
  66.6375160  64.6564130  48.3496280  66.7638220  64.4176010  47.4313460
  66.6796540  63.8248670  48.8218360  62.4746300  68.6447470  36.3475090
  62.3147440  68.3550410  37.2456920  62.3093010  67.8687600  35.8120320
  62.1772430  66.1535030  34.9073090  61.4837590  66.1512320  34.2475370
  62.9195290  65.7294350  34.4767260  66.4899170  56.7096590  49.3146020
  65.8743440  57.2176260  48.7861480  66.1695590  55.8094920  49.2571960
  49.4924910  63.5514200  46.1412320  49.6555950  63.0819560  45.3231690
  49.9577360  63.0437760  46.8061160  64.3672330  51.9052050  48.8808170
  64.6918100  51.1741710  49.4066150  64.4028840  51.5865690  47.9789160
  51.0663890  62.9265630  48.3008130  50.6818680  62.2859300  48.8991090
  51.3776080  63.6301750  48.8702860  62.4688500  57.7834770  34.9285750
  63.3568120  58.0952000  34.7537090  62.4393590  56.9107020  34.5366330
  64.7402770  59.0946610  34.3965610  64.6566490  59.5260830  33.5462050
  65.4596960  59.5544960  34.8292430  49.5732180  59.6544810  33.8706920
  50.4427030  59.9369610  34.1542840  49.0822500  60.4680680  33.7555730
  64.1587400  64.8405330  33.6624090  63.9324980  64.1235770  34.2548730
  63.7683600  64.5917770  32.8245840  49.9403430  68.8672190  34.4368550
  50.3001070  69.4661530  33.7825820  49.7995770  69.4132080  35.2103580
  49.9245290  67.1327050  48.9110950  50.0336410  66.1921790  48.7706340
  49.2725850  67.3981800  48.2624680  64.4973510  54.5926040  36.4833430
  63.8686670  54.6971710  35.7691660  64.0025430  54.8122820  37.2727310
  58.9431650  66.3131630  33.9167410  59.0443630  66.1095620  32.9869390
  58.0433390  66.0589910  34.1215190  65.2980330  54.5076650  46.7412230
  64.7953930  55.2482050  47.0806040  66.1136990  54.8960650  46.4249020
  53.0645450  69.0149890  41.5344980  53.8007930  68.4665350  41.8053550
  53.4486370  69.8805900  41.3950970  49.9490930  65.0823460  37.4086490
  49.0230710  65.3244600  37.3991900  50.4147360  65.9097720  37.2871240
  52.0703730  68.1995960  50.7230560  52.8716460  68.5208010  51.1365960
  51.5555550  67.8391540  51.4450470  56.1747760  68.1880200  33.3570550
  56.9676370  68.4769030  32.9052340  55.6552110  67.7572370  32.6783030
  65.2277930  67.4150330  34.7807290  64.9419440  67.0015470  33.9661470
  65.0297480  68.3438040  34.6607810  59.9327890  62.4703640  33.8254890
  59.3837990  62.9172940  34.4697630  60.5547150  61.9652890  34.3492560
  63.9862830  63.8245740  49.7577150  64.7272300  64.1621500  49.2544610
  63.2235510  63.9937800  49.2046920  63.1330660  59.2156730  50.2971510
  63.7151430  58.4609050  50.2091990  63.3092430  59.7464170  49.5202990
  53.2944710  54.6028410  32.6556230  53.5970610  54.6095840  31.7475380
  54.0339300  54.2526270  33.1523890  56.5129640  53.5463030  33.6412430
  56.1651640  52.8687020  33.0614880  56.7142410  53.0852540  34.4555820
  52.3174840  63.9070830  33.4886030  52.7549710  64.4500500  34.1443610
  52.8022570  63.0817780  33.4982370  49.5320640  66.6959860  40.9406290
  49.8623650  65.8280920  40.7084930  49.9611640  66.9018380  41.7711250
  50.0210850  67.5630450  43.6787920  49.5841840  67.7431250  44.5112070
  50.5888530  68.3205070  43.5369640  65.6573030  67.0647450  47.9665230
  65.0575020  67.1240010  47.2229150  65.7866930  66.1252430  48.0962080
  66.8974480  64.8065270  33.3034940  66.0667440  64.8741920  33.7742170
  67.0746310  65.6969390  33.0001800  49.8535280  60.0750680  40.0376800
  49.1984120  59.8062320  39.3936500  50.6913230  59.9655160  39.5878780
  66.4050110  61.8447120  32.9641660  66.6798950  62.7526000  32.8360880
  66.2160850  61.7809650  33.9003650  62.8025720  54.8691970  34.2595290
  63.2210600  54.6822950  33.4191950  62.4961780  54.0171020  34.5698220
  65.6915070  58.9287630  47.5910610  65.4601160  58.7000380  46.6908560
  65.9519620  59.8487180  47.5455500  64.1303140  54.1544060  50.3690310
  65.0073320  54.1627460  50.7524310  64.1423980  53.4174900  49.7582660
  49.0673360  57.2849610  35.9802130  48.1637440  57.5479810  35.8053790
  49.5513980  57.5560780  35.2002090  65.5766410  58.0073600  41.2578330
  66.1003890  57.5136250  40.6268500  66.1625830  58.1423960  42.0025900
  51.6100570  56.3415150  33.8896510  52.3192270  55.9198370  33.4043790
  50.8940510  56.4090380  33.2579860  65.0666380  57.2646950  37.1970740
  65.5625500  57.0317820  37.9819620  64.8682450  56.4258790  36.7808380
  66.4953540  55.9007900  39.7308420  66.3852820  55.7463940  40.6690690
  67.2561130  55.3728840  39.4883830  64.8419260  51.8402030  46.1891420
  65.4791480  52.4536170  46.5550610  64.9894150  51.8762690  45.2440650
  67.3843810  53.7315820  32.9714560  68.3093120  53.5997000  32.7632850
  67.3619600  53.8108640  33.9251010  67.4582300  54.5026480  35.5971270
  66.6633800  54.4371600  36.1264180  67.6625580  55.4377120  35.5856620
  64.4000720  68.5418030  39.5909660  64.9959790  68.2202600  38.9144080
  64.6578870  68.0689850  40.3822930  52.3063290  64.9735940  49.7400290
  52.2632920  64.6028850  50.6214750  52.4374300  65.9113510  49.8802110
  67.2673480  68.5489910  46.1420650  66.7731760  68.9458780  45.4247780
  66.6586770  67.9239120  46.5357930  50.0593550  68.6030960  39.0202870
  49.8915590  67.9701640  39.7184760  49.1928060  68.8090360  38.6697060
  51.6656250  67.2964190  36.4653010  51.1403870  67.6772220  35.7614970
  51.5900830  67.9214960  37.1862720  66.4221570  68.8551730  37.7866950
  66.5973760  68.1689470  37.1427870  65.7243140  69.3798780  37.3943620
  54.2649220  69.2446570  35.3402260  54.9968040  68.9605850  34.7926150
  54.5242890  69.0059850  36.2301640  64.7554070  68.5396020  50.6133740
  65.5479390  68.0445250  50.4059700  65.0487220  69.2186160  51.2209350
  60.8813730  59.4116960  21.4949790  60.8007780  58.4971570  21.2241500
  60.4678150  59.9084030  20.7889500  59.0131770  61.1895980  23.3759060
  58.2373870  60.7096420  23.6657630  59.6644700  60.5101630  23.2015220
  53.0297600  61.5015790  24.2534820  52.1982480  61.2464500  24.6531330
  53.6378580  61.5726560  24.9892740  63.0339200  65.5956170  22.1558190
  62.5720730  64.8243410  22.4845360  63.8464750  65.6222240  22.6610640
  53.0098860  65.5355880  24.4492840  53.3126900  64.6453620  24.2703060
  53.7542450  66.0926100  24.2215090  51.4389550  56.4617680  18.0377210
  50.5506250  56.8033650  17.9357090  51.7230740  56.2618000  17.1458040
  49.4022560  59.0623330  23.9216910  49.9738670  58.2945530  23.9220550
  49.4024100  59.3612090  23.0123520  59.2602510  67.8814180  21.7762180
  58.6413950  68.3371680  21.2056620  60.1154290  68.0365640  21.3751880
  58.4540760  63.8653170  23.3829220  58.3849040  62.9243110  23.2218350
  59.2160620  63.9554580  23.9551790  50.6447430  54.4707690  25.7085840
  50.4650270  53.5733440  25.9888600  50.2427510  55.0179560  26.3832790
  59.4845930  56.6723550  23.6098150  59.8610750  55.7995430  23.4971820
  59.3865440  57.0082250  22.7188590  53.6150940  55.0449180  19.0715590
  53.7217690  55.9452910  19.3784350  52.7043300  54.9967150  18.7810240
  63.2670050  54.1673990  20.5426490  64.0879670  53.6770560  20.5851970
  63.3004130  54.7571650  21.2958330  51.2634100  56.9668190  24.3168180
  51.9444210  57.2306560  24.9355580  50.9482150  56.1269060  24.6506190
  55.4558670  58.0135550  23.4040770  55.9636890  58.5116520  24.0445790
  55.9871910  57.2370750  23.2280130  67.5569600  56.1840740  27.1070120
  66.8521770  56.5722450  26.5885230  67.8227520  56.8791030  27.7091050
  53.7394770  52.6534110  27.6704190  53.7413210  53.1706500  26.8650090
  52.9099080  52.1764290  27.6474120  60.1265860  62.7653420  19.1694090
  59.5083130  63.2302870  18.6056810  60.6389110  63.4580900  19.5863600
  54.9897620  62.2929290  25.8477690  54.6567000  62.9198210  26.4898760
  55.1664300  62.8191170  25.0679360  63.5031530  56.1074370  23.3154030
  62.7987100  56.3959260  23.8957140  63.8643690  56.9174480  22.9553590
  53.4210100  54.3644070  25.6774640  53.7626910  55.2086120  25.3828510
  52.4825910  54.5127810  25.7939980  54.2016720  64.2610090  27.6626870
  54.8190720  64.9361170  27.3811320  53.3409840  64.6698070  27.5714370
  49.4949060  63.4509950  16.5433720  49.1177040  63.9397050  15.8118620
  49.7522130  64.1235230  17.1740250  65.1194310  65.7249500  25.5781510
  64.4357830  66.3948610  25.5698180  65.6588600  65.9230150  24.8126370
  66.5718450  55.5529160  23.7063240  65.6243360  55.5868140  23.8378670
  66.8968440  56.3668110  24.0912600  57.1037990  51.8526340  22.0019230
  57.4112970  51.2973230  21.2854730  56.1738690  51.9870800  21.8192220
  62.6553050  67.5693630  24.2926690  62.6680210  67.1655920  23.4248950
  62.1028270  68.3440920  24.1888120  63.9498470  64.2909850  19.3816860
  63.8394800  63.3484180  19.5066280  63.9466720  64.6525490  20.2679620
  62.0538490  62.4723470  25.6209300  62.4707280  62.2583580  24.7862760
  62.7778310  62.7296260  26.1917920  59.4918750  59.9175170  18.7379350
  58.5648030  59.8512550  18.9667820  59.6443570  60.8555300  18.6234590
  59.4787830  56.1892170  15.7346510  58.5391500  56.3506130  15.8198970
  59.7971090  56.9077850  15.1882500  66.0000590  60.8710690  25.7125540
  65.1719220  60.9403780  25.2375670  66.5951070  61.4565000  25.2441370
  63.5216040  61.4795470  19.2414600  62.9028460  61.1415020  18.5940900
  63.5040490  60.8355230  19.9493790  62.9642600  57.6580010  26.6580410
  62.5513780  58.4833720  26.9120400  62.2318550  57.0725050  26.4656770
  55.0975390  60.4439910  21.5199080  54.6932390  59.7317160  21.0244980
  55.1838510  60.0993150  22.4087120  55.5657090  64.1307470  23.6838290
  55.2685380  63.5252940  23.0046070  56.5156910  64.1684780  23.5727650
  53.8104010  57.2183120  25.2998120  54.3618600  57.3278460  24.5251370
  54.3247520  57.5920720  26.0153350  63.6542700  67.7039340  27.3461390
  63.1773260  68.5111530  27.1534000  62.9704490  67.0517670  27.4987600
  54.6575520  63.8689160  30.3346090  53.7604050  64.0929130  30.5819490
  54.6828390  63.9924100  29.3857490  61.6980740  60.7182280  16.2487350
  62.1374020  59.8804710  16.1025170  62.4109160  61.3511680  16.3351490
  53.4846740  60.7402480  28.9103460  53.3454510  61.6125280  29.2790860
  52.6028100  60.3975290  28.7651400  59.8076120  65.6578350  20.2168590
  60.2472030  66.4002680  19.8023980  59.7463010  65.9004920  21.1407550
  55.2827090  66.6824180  31.1188610  55.2542520  67.0867130  30.2517040
  55.1192060  65.7534540  30.9560210  65.2797880  51.9725090  14.5628390
  64.9670540  52.0651920  15.4627460  66.0410350  52.5506120  14.5125820
  51.7980020  59.3384890  19.0205730  51.6777620  60.0646980  18.4087000
  51.4880910  58.5687800  18.5433640  67.2341910  67.4651280  32.4152780
  67.7101630  67.9434170  33.0941860  67.8549070  67.3968770  31.6898280
  49.4365390  62.5100030  24.8274370  49.5145810  62.6448800  23.8830090
  50.0507070  61.8015920  25.0202490  50.6813020  64.2100220  21.2380550
  50.2741100  64.3514810  20.3834150  51.5726030  63.9260380  21.0351760
  66.6375160  64.6564130  29.5752790  66.7638220  64.4176010  28.6569970
  66.6796540  63.8248670  30.0474870  60.4991900  68.3592130  28.1447600
  61.0136570  68.2700140  28.9470030  59.6560980  68.7051830  28.4375510
  62.4746300  68.6447470  17.5731600  62.3147440  68.3550410  18.4713430
  62.3093010  67.8687600  17.0376830  54.9534680  68.4246000  19.3503220
  54.7777160  67.5081540  19.1371020  54.0990420  68.7833290  19.5901020
  62.1772430  66.1535030  16.1329600  61.4837590  66.1512320  15.4731880
  62.9195290  65.7294350  15.7023770  61.7422360  67.7797740  20.2078090
  62.1979310  66.9987120  20.5216710  62.0814880  68.4904560  20.7519270
  66.4899170  56.7096590  30.5402530  65.8743440  57.2176260  30.0117990
  66.1695590  55.8094920  30.4828470  49.4924910  63.5514200  27.3668830
  49.6555950  63.0819560  26.5488200  49.9577360  63.0437760  28.0317670
  54.2643680  52.6819960  22.4029400  53.8211830  53.4629500  22.0713920
  54.8228670  53.0049850  23.1100340  58.5513490  55.5488480  28.0064720
  58.0892860  55.7571500  28.8184660  58.1491600  54.7347830  27.7035390
  63.5518000  56.7697430  29.1361380  62.7011590  56.4703180  29.4570450
  63.3919790  57.0139440  28.2245200  60.6467710  58.2699180  31.2360170
  60.9721120  57.4362930  30.8962400  61.4348040  58.7927700  31.3838500
  57.3802500  52.3030660  17.2835230  56.7556680  52.2990530  18.0088540
  57.2932620  51.4361620  16.8871200  56.3019580  53.2267290  24.2619000
  56.5991910  54.1330120  24.1811020  56.8505140  52.7386070  23.6478570
  54.0557900  57.8053530  20.1310650  53.8298820  57.5890700  21.0357270
  53.2750430  58.2381990  19.7856620  61.2855660  57.8116900  18.7301300
  60.6864550  58.5352700  18.5464920  61.8335270  57.7493680  17.9477750
  56.4957110  58.7039110  30.7970920  56.4000710  57.7633840  30.6471320
  57.3389090  58.9254180  30.4018990  59.8920530  56.4480440  20.7604580
  60.2850100  56.7652640  19.9473270  60.2537380  55.5692320  20.8749100
  51.6267650  55.1152780  28.9504700  51.2331040  55.9627990  29.1577480
  50.9386050  54.4779150  29.1413340  58.2012700  55.1987750  32.0201440
  57.5111020  55.0059950  32.6547530  58.9445000  55.4822390  32.5525740
  48.9284700  53.0381240  22.9834780  48.6397750  53.6084100  23.6959760
  49.6730460  52.5585690  23.3466010  49.1154930  56.9801360  14.1937500
  49.0329600  57.9232120  14.3352490  48.7637990  56.8376270  13.3149850
  60.4775670  59.0386190  24.8555360  59.7456790  59.5473000  25.2045460
  60.0800010  58.2216170  24.5544140  56.9153060  55.7140390  23.2607850
  56.9189120  55.2730340  22.4112390  57.8104180  56.0357720  23.3679670
  52.7655440  55.5966880  22.2202060  52.4255490  56.0742110  22.9769110
  52.0032760  55.1432000  21.8603160  56.9773210  56.7152470  16.2514610
  57.0986030  56.6738950  17.2000430  56.5921720  57.5776620  16.0961340
  60.9401580  54.4919870  24.2678300  60.9574320  54.9428520  25.1120150
  60.6917160  53.5925510  24.4811740  55.9894710  59.0253610  15.6497910
  55.4211610  58.5771860  15.0233820  56.6983710  59.3846390  15.1163060
  64.3672330  51.9052050  30.1064680  64.6918100  51.1741710  30.6322660
  64.4028840  51.5865690  29.2045670  51.0663890  62.9265630  29.5264640
  50.6818680  62.2859300  30.1247600  51.3776080  63.6301750  30.0959370
  57.2161030  59.7742170  25.0073260  57.5831160  59.3000740  25.7534600
  57.0266090  60.6483740  25.3481600  50.0801520  54.5185860  21.1366730
  49.7948440  54.1541530  21.9745350  50.0180380  53.7866320  20.5229870
  55.0060400  58.8150810  27.3257470  54.7017470  59.6942790  27.5507830
  55.9606860  58.8750600  27.3614910  53.5342190  63.0211800  17.9224320
  52.7604450  62.4809420  17.7623040  54.2636820  62.5018410  17.5842080
  64.2930170  62.0177160  23.7150710  65.0129290  62.5132450  23.3246820
  64.0911990  61.3395050  23.0704580  59.7540110  53.4115120  17.8580100
  58.9404720  52.9128290  17.7825410  59.5602060  54.2513370  17.4416450
  59.6748970  62.0886220  29.6019710  59.6086280  61.1681890  29.3477300
  59.0454110  62.1861660  30.3164350  62.4688500  57.7834770  16.1542260
  63.3568120  58.0952000  15.9793600  62.4393590  56.9107020  15.7622840
  53.5779590  62.6892180  21.5603130  54.0958260  61.8860440  21.5060020
  53.1263610  62.6271320  22.4019960  58.4649090  63.9558460  16.8330430
  58.8064790  64.7000690  16.3373750  57.6361800  64.2689580  17.1955260
  51.0624130  59.6553550  28.4728830  50.7039070  60.3207400  29.0602170
  50.7678690  58.8237100  28.8441450  59.6065700  64.9106790  29.3523510
  59.6210240  63.9787750  29.1342420  58.8990800  64.9966550  29.9913280
  64.7402770  59.0946610  15.6222120  64.6566490  59.5260830  14.7718560
  65.4596960  59.5544960  16.0548940  65.8176910  61.5514130  28.6992090
  65.0925100  62.1442910  28.5021480  66.3452370  61.5437670  27.9005460
  65.7690020  65.9488870  18.3504250  65.1266180  65.2944490  18.6247970
  65.3820680  66.3543960  17.5744920  61.3476500  63.2774300  22.1975940
  61.7000320  62.6802430  21.5377310  60.4638830  62.9518530  22.3684190
  57.4339780  64.0371990  19.6046350  58.1210910  64.5841200  19.9853940
  56.6472200  64.5812720  19.6395960  49.5732180  59.6544810  15.0963430
  50.4427030  59.9369610  15.3799350  49.0822500  60.4680680  14.9812240
  56.7366990  61.0418020  19.2171710  57.1929770  61.8523270  19.4431900
  56.3855200  60.7241160  20.0490200  59.0399600  66.5524360  26.4464010
  59.6841820  66.7583740  27.1237430  59.4029040  65.7912760  25.9934860
  52.6378770  51.3855670  19.6894230  52.5093400  51.3773570  20.6379150
  51.8140790  51.7238760  19.3385240  60.3131680  64.5556710  25.1641460
  60.9553910  63.8549870  25.2773630  60.8381030  65.3355150  24.9838350
  64.1587400  64.8405330  14.8880600  63.9324980  64.1235770  15.4805240
  63.7683600  64.5917770  14.0502350  62.0869300  65.3551610  28.3677520
  62.4225540  65.9418300  29.0455440  61.1669640  65.2244320  28.5975310
  49.9403430  68.8672190  15.6625060  50.3001070  69.4661530  15.0082330
  49.7995770  69.4132080  16.4360090  63.7403650  62.7577270  16.5494760
  63.4525350  63.2189960  17.3372640  64.5355820  62.2975040  16.8178980
  49.9245290  67.1327050  30.1367460  50.0336410  66.1921790  29.9962850
  49.2725850  67.3981800  29.4881190  57.9157880  65.4042940  31.5365580
  57.5954750  64.6852180  32.0811270  57.2416240  66.0798010  31.6101640
  55.9572050  66.2503390  16.4798730  55.9482150  66.9833080  15.8643240
  55.0370410  66.0034970  16.5725690  51.5578690  61.4718280  17.2245490
  50.9506640  62.2117180  17.2340790  52.0328040  61.5617640  16.3983690
  61.1311480  55.6369100  26.9002380  61.4992300  54.8164310  27.2281950
  60.2709680  55.6970990  27.3158030  64.4973510  54.5926040  17.7089940
  63.8686670  54.6971710  16.9948170  64.0025430  54.8122820  18.4983820
  58.9431650  66.3131630  15.1423920  59.0443630  66.1095620  14.2125900
  58.0433390  66.0589910  15.3471700  56.4657540  56.8711990  19.1247820
  55.7573690  57.3398330  19.5661430  56.7502020  56.2134000  19.7593010
  58.0913470  58.2908690  27.1240350  58.5898720  58.7654510  27.7892200
  58.2336420  57.3672210  27.3310380  60.4972970  53.5962650  20.5643610
  60.3740750  53.6148780  19.6153120  61.4457530  53.6441590  20.6842010
  57.5849760  68.8317950  19.8371590  57.8391260  68.7939340  18.9150960
  56.6362240  68.7051280  19.8299840  54.6692560  55.1797070  16.4998530
  55.5183090  55.6167220  16.4338720  54.3023830  55.4917330  17.3270590
  65.2980330  54.5076650  27.9668740  64.7953930  55.2482050  28.3062550
  66.1136990  54.8960650  27.6505530  63.5902340  59.7509830  21.4130100
  62.6492480  59.7660060  21.5877790  63.9046410  58.9645790  21.8590400
  53.5683980  61.4329430  14.9734060  54.3347250  61.3210790  15.5359490
  53.6458670  60.7367400  14.3210830  52.2630740  58.8654500  15.6566950
  52.3434330  57.9182010  15.7684350  53.1550490  59.1961380  15.7627610
  65.5927920  66.9218680  23.0884360  65.7175340  67.7449850  23.5608170
  66.4593480  66.7109410  22.7408510  53.0645450  69.0149890  22.7601490
  53.8007930  68.4665350  23.0310060  53.4486370  69.8805900  22.6207480
  49.9490930  65.0823460  18.6343000  49.0230710  65.3244600  18.6248410
  50.4147360  65.9097720  18.5127750  52.0703730  68.1995960  31.9487070
  52.8716460  68.5208010  32.3622470  51.5555550  67.8391540  32.6706980
  56.1747760  68.1880200  14.5827060  56.9676370  68.4769030  14.1308850
  55.6552110  67.7572370  13.9039540  60.9068360  64.3075830  31.8962480
  60.3006520  64.3307430  31.1558230  60.6022470  63.5758870  32.4329730
  62.3368730  68.0356120  30.5071890  63.2890480  67.9514140  30.4572130
  62.1896950  68.6997830  31.1805680  65.2277930  67.4150330  16.0063800
  64.9419440  67.0015470  15.1917980  65.0297480  68.3438040  15.8864320
  49.7901540  60.6869420  30.8923120  50.2940560  60.1076700  31.4639350
  49.0508960  60.9709650  31.4299490  56.6925160  63.4083610  14.4469410
  56.5875800  62.7935960  15.1730790  56.5249380  62.8849500  13.6632420
  59.9327890  62.4703640  15.0511400  59.3837990  62.9172940  15.6954140
  60.5547150  61.9652890  15.5749070  63.9862830  63.8245740  30.9833660
  64.7272300  64.1621500  30.4801120  63.2235510  63.9937800  30.4303430
  51.8224620  58.8299010  31.7873190  51.8629960  58.5312880  32.6958420
  52.6770120  59.2306620  31.6280710  55.6003010  61.4294560  16.9476700
  56.0219430  61.2634430  17.7908090  55.7253850  60.6194790  16.4531840
  53.7630430  57.4091110  29.7547680  53.2326890  56.9182060  29.1271020
  54.4318500  57.8375310  29.2205610  58.1130650  60.4532170  14.1953800
  58.6336310  59.7381190  13.8294950  58.7599050  61.0918040  14.4954310
  62.6608490  61.8760570  29.5188870  63.0749510  62.0305650  30.3679290
  61.7259490  62.0015790  29.6814650  63.1330660  59.2156730  31.5228020
  63.7151430  58.4609050  31.4348500  63.3092430  59.7464170  30.7459500
  54.2502730  54.3753480  29.8344970  54.1559600  53.7574230  29.1095840
  53.6700120  55.1019770  29.6074880  57.0164170  52.9326720  26.8672360
  56.5681470  52.9550980  26.0217910  56.3829370  52.5345740  27.4642660
  57.4223720  61.8281050  27.4884800  57.8411830  62.6713780  27.3161040
  56.5032350  61.9653090  27.2591580  59.7587620  59.5597230  28.8722640
  59.8783830  58.9638370  29.6117480  60.6181620  59.5966920  28.4523940
  62.0975520  60.1134420  27.4485150  61.5710740  60.6377040  26.8450290
  62.4406860  60.7461810  28.0794880  54.4961910  57.5027790  13.8934860
  54.2950970  56.6395150  14.2548200  54.3253960  57.4161150  12.9556460
  55.2731140  68.1334060  28.6042530  54.7352230  68.8580120  28.2851230
  55.5265100  67.6564400  27.8139870  56.5256390  56.1018580  30.1298460
  57.1156080  55.7934430  30.8176280  55.7076630  55.6298330  30.2858360
  61.3449820  55.7184390  30.3631480  60.6565340  55.0565930  30.2981470
  62.0655840  55.2722660  30.8079940  61.9750220  52.3136020  16.4221740
  62.2552510  51.4703920  16.7781160  61.2015950  52.5459130  16.9360490
  53.2944710  54.6028410  13.8812740  53.5970610  54.6095840  12.9731890
  54.0339300  54.2526270  14.3780400  58.1293350  69.3685270  28.8629180
  58.0552050  70.2720410  29.1701550  57.2272190  69.0497170  28.8351250
  56.5129640  53.5463030  14.8668940  56.1651640  52.8687020  14.2871390
  56.7142410  53.0852540  15.6812330  58.6778680  68.5343780  16.4855540
  59.5729470  68.8728750  16.5074300  58.7096310  67.8123190  15.8579820
  52.3174840  63.9070830  14.7142540  52.7549710  64.4500500  15.3700120
  52.8022570  63.0817780  14.7238880  49.5320640  66.6959860  22.1662800
  49.8623650  65.8280920  21.9341440  49.9611640  66.9018380  22.9967760
  54.1282560  65.0268870  19.8264770  53.8278100  64.9033840  20.7268680
  54.0220050  64.1677460  19.4180500  50.0210850  67.5630450  24.9044430
  49.5841840  67.7431250  25.7368580  50.5888530  68.3205070  24.7626150
  65.6573030  67.0647450  29.1921740  65.0575020  67.1240010  28.4485660
  65.7866930  66.1252430  29.3218590  66.8974480  64.8065270  14.5291450
  66.0667440  64.8741920  14.9998680  67.0746310  65.6969390  14.2258310
  66.3530940  61.5512750  17.0325650  67.1149850  62.1209400  17.1385340
  66.3685310  60.9839950  17.8033960  49.8535280  60.0750680  21.2633310
  49.1984120  59.8062320  20.6193010  50.6913230  59.9655160  20.8135290
  67.3590910  62.4062850  21.8767580  67.7299740  61.6230170  21.4703550
  67.9992840  63.0951950  21.6984880  64.3424670  63.7899430  27.2897900
  63.5284510  64.2196590  27.5523690  64.7498870  64.4017840  26.6766950
  66.4050110  61.8447120  14.1898170  66.6798950  62.7526000  14.0617390
  66.2160850  61.7809650  15.1260160  62.8025720  54.8691970  15.4851800
  63.2210600  54.6822950  14.6448460  62.4961780  54.0171020  15.7954730
  66.3015450  59.7816110  19.1827600  65.9259050  59.0144040  18.7508890
  65.5718570  60.1638810  19.6702530  50.8911210  60.4603250  25.8036650
  51.2584250  60.3730650  26.6832670  50.3222030  59.6969800  25.7043510
  65.6915070  58.9287630  28.8167120  65.4601160  58.7000380  27.9165070
  65.9519620  59.8487180  28.7712010  50.4427210  57.3712340  29.7095070
  49.5483260  57.3379100  30.0488780  50.9824760  57.5699130  30.4746320
  64.1303140  54.1544060  31.5946820  65.0073320  54.1627460  31.9780820
  64.1423980  53.4174900  30.9839170  49.0673360  57.2849610  17.2058640
  48.1637440  57.5479810  17.0310300  49.5513980  57.5560780  16.4258600
  65.5766410  58.0073600  22.4834840  66.1003890  57.5136250  21.8525010
  66.1625830  58.1423960  23.2282410  65.7556130  58.0913470  26.0054390
  64.8058840  58.0577010  26.1199380  65.9369140  59.0013580  25.7704160
  51.6100570  56.3415150  15.1153020  52.3192270  55.9198370  14.6300300
  50.8940510  56.4090380  14.4836370  51.2574730  52.3954480  14.1555670
  51.9802860  52.9363420  14.4736890  51.5299250  52.1217900  13.2797210
  65.0666380  57.2646950  18.4227250  65.5625500  57.0317820  19.2076130
  64.8682450  56.4258790  18.0064890  50.9466920  51.6460670  24.0578290
  51.5943110  51.0958050  23.6173450  51.3668760  51.9003820  24.8794100
  66.4953540  55.9007900  20.9564930  66.3852820  55.7463940  21.8947200
  67.2561130  55.3728840  20.7140340  64.8419260  51.8402030  27.4147930
  65.4791480  52.4536170  27.7807120  64.9894150  51.8762690  26.4697160
  67.3843810  53.7315820  14.1971070  68.3093120  53.5997000  13.9889360
  67.3619600  53.8108640  15.1507520  67.4582300  54.5026480  16.8227780
  66.6633800  54.4371600  17.3520690  67.6625580  55.4377120  16.8113130
  64.4000720  68.5418030  20.8166170  64.9959790  68.2202600  20.1400590
  64.6578870  68.0689850  21.6079440  50.6998920  51.8016340  26.8003610
  50.3513740  52.2580160  27.5661790  50.3686620  50.9073470  26.8826040
  52.3063290  64.9735940  30.9656800  52.2632920  64.6028850  31.8471260
  52.4374300  65.9113510  31.1058620  56.0069320  66.5295530  26.5666520
  55.7660680  66.7970090  25.6797040  56.9471960  66.7001260  26.6217380
  58.2123740  52.9928220  30.3223030  58.1512630  53.5850050  31.0718440
  59.1524120  52.8854180  30.1773290  60.8498300  52.6498280  29.9615320
  61.4638710  52.9677570  29.2996400  61.3947860  52.1646870  30.5811180
  67.2673480  68.5489910  27.3677160  66.7731760  68.9458780  26.6504290
  66.6586770  67.9239120  27.7614440  51.3719560  51.3292540  30.0754380
  51.9202550  51.1480590  29.3120490  51.4374870  50.5386650  30.6110690
  52.1451320  67.9198190  28.0854580  51.5511640  67.7882890  28.8244620
  52.1375160  67.0836330  27.6196680  61.5906340  51.2130420  26.2884610
  60.7166180  51.5465530  26.0857540  61.4817090  50.7403600  27.1136480
  62.4978320  53.4201290  27.6726330  62.1691680  52.6053050  27.2928060
  63.4460620  53.3771100  27.5492020  64.9512930  69.1913330  24.6463900
  64.4915900  69.9429140  24.2721920  64.3225390  68.4719800  24.5878700
  51.7763550  65.2856570  27.0362620  51.0497610  64.6661860  26.9688570
  51.8372700  65.6797180  26.1660700  55.3808650  67.5001570  23.8212030
  55.8973670  66.8888930  23.2960290  56.0306030  68.0030350  24.3123040
  58.1204150  68.3910060  24.6481010  58.4081960  68.1364360  23.7714020
  58.6327370  67.8387420  25.2386580  59.3381160  52.1300260  25.2277520
  58.5552950  52.6045760  25.5074280  59.0444090  51.2255090  25.1190700
  63.8902230  52.8323360  23.2726610  64.3310320  52.7768460  22.4248210
  63.6209820  53.7481370  23.3436790  65.7540800  52.4638600  21.2835430
  65.6929200  51.5199820  21.1366450  66.5332830  52.5718690  21.8288890
  50.0593550  68.6030960  20.2459380  49.8915590  67.9701640  20.9441270
  49.1928060  68.8090360  19.8953570  50.6821570  52.4347740  17.7491240
  51.4400930  52.5476620  17.1755270  50.2198740  53.2716940  17.7034670
  57.2235380  54.5487010  20.7393550  56.4109890  54.1743900  20.3989430
  57.7277020  53.7932090  21.0414740  61.7260360  51.2129460  21.9776620
  62.3289730  51.7849670  22.4525140  60.9853350  51.7768900  21.7550520
  64.8694960  51.6151020  17.2516900  65.0645590  52.5134470  17.5184330
  64.0824830  51.3838100  17.7449850  51.6656250  67.2964190  17.6909520
  51.1403870  67.6772220  16.9871480  51.5900830  67.9214960  18.4119230
  53.0546720  52.9611790  16.2893210  53.5839480  52.1741590  16.1601160
  53.6875040  53.6402980  16.5228740  55.2484560  52.6986930  19.3438600
  54.6187300  51.9974240  19.5108730  54.7089700  53.4591060  19.1271760
  58.1876510  69.3126160  32.0149210  59.1143820  69.0770430  32.0585170
  58.1726940  70.1398160  31.5335240  66.4221570  68.8551730  19.0123460
  66.5973760  68.1689470  18.3684380  65.7243140  69.3798780  18.6200130
  55.3740120  51.9770910  31.7791090  55.0924390  52.4804510  31.0151910
  55.7559820  51.1792660  31.4133220  54.2649220  69.2446570  16.5658770
  54.9968040  68.9605850  16.0182660  54.5242890  69.0059850  17.4558150
  53.4264010  65.3611300  16.5705100  52.7972890  65.8296400  17.1190930
  53.5411840  64.5160520  17.0051290  61.9755580  51.3924490  32.3571560
  61.8621030  51.7119100  33.2523080  62.7925320  51.7937000  32.0608840
  64.7554070  68.5396020  31.8390250  65.5479390  68.0445250  31.6316210
  65.0487220  69.2186160  32.4465860  60.8813730  59.4116960   2.7206300
  60.8007780  58.4971570   2.4498010  60.4678150  59.9084030   2.0146010
  59.0131770  61.1895980   4.6015570  58.2373870  60.7096420   4.8914140
  59.6644700  60.5101630   4.4271730  53.0297600  61.5015790   5.4791330
  52.1982480  61.2464500   5.8787840  53.6378580  61.5726560   6.2149250
  63.0339200  65.5956170   3.3814700  62.5720730  64.8243410   3.7101870
  63.8464750  65.6222240   3.8867150  53.0098860  65.5355880   5.6749350
  53.3126900  64.6453620   5.4959570  53.7542450  66.0926100   5.4471600
  49.4022560  59.0623330   5.1473420  49.9738670  58.2945530   5.1477060
  49.4024100  59.3612090   4.2380030  59.2602510  67.8814180   3.0018690
  58.6413950  68.3371680   2.4313130  60.1154290  68.0365640   2.6008390
  58.4540760  63.8653170   4.6085730  58.3849040  62.9243110   4.4474860
  59.2160620  63.9554580   5.1808300  50.6447430  54.4707690   6.9342350
  50.4650270  53.5733440   7.2145110  50.2427510  55.0179560   7.6089300
  59.4845930  56.6723550   4.8354660  59.8610750  55.7995430   4.7228330
  59.3865440  57.0082250   3.9445100  63.2670050  54.1673990   1.7683000
  64.0879670  53.6770560   1.8108480  63.3004130  54.7571650   2.5214840
  51.2634100  56.9668190   5.5424690  51.9444210  57.2306560   6.1612090
  50.9482150  56.1269060   5.8762700  55.4558670  58.0135550   4.6297280
  55.9636890  58.5116520   5.2702300  55.9871910  57.2370750   4.4536640
  67.5569600  56.1840740   8.3326630  66.8521770  56.5722450   7.8141740
  67.8227520  56.8791030   8.9347560  53.7394770  52.6534110   8.8960700
  53.7413210  53.1706500   8.0906600  52.9099080  52.1764290   8.8730630
  54.9897620  62.2929290   7.0734200  54.6567000  62.9198210   7.7155270
  55.1664300  62.8191170   6.2935870  63.5031530  56.1074370   4.5410540
  62.7987100  56.3959260   5.1213650  63.8643690  56.9174480   4.1810100
  53.4210100  54.3644070   6.9031150  53.7626910  55.2086120   6.6085020
  52.4825910  54.5127810   7.0196490  54.2016720  64.2610090   8.8883380
  54.8190720  64.9361170   8.6067830  53.3409840  64.6698070   8.7970880
  65.1194310  65.7249500   6.8038020  64.4357830  66.3948610   6.7954690
  65.6588600  65.9230150   6.0382880  66.5718450  55.5529160   4.9319750
  65.6243360  55.5868140   5.0635180  66.8968440  56.3668110   5.3169110
  57.1037990  51.8526340   3.2275740  57.4112970  51.2973230   2.5111240
  56.1738690  51.9870800   3.0448730  62.6553050  67.5693630   5.5183200
  62.6680210  67.1655920   4.6505460  62.1028270  68.3440920   5.4144630
  62.0538490  62.4723470   6.8465810  62.4707280  62.2583580   6.0119270
  62.7778310  62.7296260   7.4174430  66.0000590  60.8710690   6.9382050
  65.1719220  60.9403780   6.4632180  66.5951070  61.4565000   6.4697880
  62.9642600  57.6580010   7.8836920  62.5513780  58.4833720   8.1376910
  62.2318550  57.0725050   7.6913280  55.0975390  60.4439910   2.7455590
  54.6932390  59.7317160   2.2501490  55.1838510  60.0993150   3.6343630
  55.5657090  64.1307470   4.9094800  55.2685380  63.5252940   4.2302580
  56.5156910  64.1684780   4.7984160  53.8104010  57.2183120   6.5254630
  54.3618600  57.3278460   5.7507880  54.3247520  57.5920720   7.2409860
  63.6542700  67.7039340   8.5717900  63.1773260  68.5111530   8.3790510
  62.9704490  67.0517670   8.7244110  54.6575520  63.8689160  11.5602600
  53.7604050  64.0929130  11.8076000  54.6828390  63.9924100  10.6114000
  53.4846740  60.7402480  10.1359970  53.3454510  61.6125280  10.5047370
  52.6028100  60.3975290   9.9907910  55.2827090  66.6824180  12.3445120
  55.2542520  67.0867130  11.4773550  55.1192060  65.7534540  12.1816720
  67.2341910  67.4651280  13.6409290  67.7101630  67.9434170  14.3198370
  67.8549070  67.3968770  12.9154790  49.4365390  62.5100030   6.0530880
  49.5145810  62.6448800   5.1086600  50.0507070  61.8015920   6.2459000
  66.6375160  64.6564130  10.8009300  66.7638220  64.4176010   9.8826480
  66.6796540  63.8248670  11.2731380  60.4991900  68.3592130   9.3704110
  61.0136570  68.2700140  10.1726540  59.6560980  68.7051830   9.6632020
  66.4899170  56.7096590  11.7659040  65.8743440  57.2176260  11.2374500
  66.1695590  55.8094920  11.7084980  49.4924910  63.5514200   8.5925340
  49.6555950  63.0819560   7.7744710  49.9577360  63.0437760   9.2574180
  54.2643680  52.6819960   3.6285910  53.8211830  53.4629500   3.2970430
  54.8228670  53.0049850   4.3356850  58.5513490  55.5488480   9.2321230
  58.0892860  55.7571500  10.0441170  58.1491600  54.7347830   8.9291900
  63.5518000  56.7697430  10.3617890  62.7011590  56.4703180  10.6826960
  63.3919790  57.0139440   9.4501710  60.6467710  58.2699180  12.4616680
  60.9721120  57.4362930  12.1218910  61.4348040  58.7927700  12.6095010
  56.3019580  53.2267290   5.4875510  56.5991910  54.1330120   5.4067530
  56.8505140  52.7386070   4.8735080  56.4957110  58.7039110  12.0227430
  56.4000710  57.7633840  11.8727830  57.3389090  58.9254180  11.6275500
  51.6267650  55.1152780  10.1761210  51.2331040  55.9627990  10.3833990
  50.9386050  54.4779150  10.3669850  58.2012700  55.1987750  13.2457950
  57.5111020  55.0059950  13.8804040  58.9445000  55.4822390  13.7782250
  48.9284700  53.0381240   4.2091290  48.6397750  53.6084100   4.9216270
  49.6730460  52.5585690   4.5722520  60.4775670  59.0386190   6.0811870
  59.7456790  59.5473000   6.4301970  60.0800010  58.2216170   5.7800650
  56.9153060  55.7140390   4.4864360  56.9189120  55.2730340   3.6368900
  57.8104180  56.0357720   4.5936180  52.7655440  55.5966880   3.4458570
  52.4255490  56.0742110   4.2025620  52.0032760  55.1432000   3.0859670
  60.9401580  54.4919870   5.4934810  60.9574320  54.9428520   6.3376660
  60.6917160  53.5925510   5.7068250  64.3672330  51.9052050  11.3321190
  64.6918100  51.1741710  11.8579170  64.4028840  51.5865690  10.4302180
  51.0663890  62.9265630  10.7521150  50.6818680  62.2859300  11.3504110
  51.3776080  63.6301750  11.3215880  57.2161030  59.7742170   6.2329770
  57.5831160  59.3000740   6.9791110  57.0266090  60.6483740   6.5738110
  50.0801520  54.5185860   2.3623240  49.7948440  54.1541530   3.2001860
  50.0180380  53.7866320   1.7486380  55.0060400  58.8150810   8.5513980
  54.7017470  59.6942790   8.7764340  55.9606860  58.8750600   8.5871420
  64.2930170  62.0177160   4.9407220  65.0129290  62.5132450   4.5503330
  64.0911990  61.3395050   4.2961090  59.6748970  62.0886220  10.8276220
  59.6086280  61.1681890  10.5733810  59.0454110  62.1861660  11.5420860
  53.5779590  62.6892180   2.7859640  54.0958260  61.8860440   2.7316530
  53.1263610  62.6271320   3.6276470  51.0624130  59.6553550   9.6985340
  50.7039070  60.3207400  10.2858680  50.7678690  58.8237100  10.0697960
  54.2637250  60.1137790  12.5824890  53.9637390  60.2594970  11.6852710
  55.0348490  59.5543080  12.4898280  59.6065700  64.9106790  10.5780020
  59.6210240  63.9787750  10.3598930  58.8990800  64.9966550  11.2169790
  65.8176910  61.5514130   9.9248600  65.0925100  62.1442910   9.7277990
  66.3452370  61.5437670   9.1261970  61.3476500  63.2774300   3.4232450
  61.7000320  62.6802430   2.7633820  60.4638830  62.9518530   3.5940700
  59.0399600  66.5524360   7.6720520  59.6841820  66.7583740   8.3493940
  59.4029040  65.7912760   7.2191370  60.3131680  64.5556710   6.3897970
  60.9553910  63.8549870   6.5030140  60.8381030  65.3355150   6.2094860
  62.0869300  65.3551610   9.5934030  62.4225540  65.9418300  10.2711950
  61.1669640  65.2244320   9.8231820  49.6372700  53.1446790  10.3757440
  48.9231220  53.3443710  10.9810050  50.0567740  52.3686360  10.7472240
  49.9245290  67.1327050  11.3623970  50.0336410  66.1921790  11.2219360
  49.2725850  67.3981800  10.7137700  57.9157880  65.4042940  12.7622090
  57.5954750  64.6852180  13.3067780  57.2416240  66.0798010  12.8358150
  61.1311480  55.6369100   8.1258890  61.4992300  54.8164310   8.4538460
  60.2709680  55.6970990   8.5414540  58.0913470  58.2908690   8.3496860
  58.5898720  58.7654510   9.0148710  58.2336420  57.3672210   8.5566890
  65.2980330  54.5076650   9.1925250  64.7953930  55.2482050   9.5319060
  66.1136990  54.8960650   8.8762040  63.5902340  59.7509830   2.6386610
  62.6492480  59.7660060   2.8134300  63.9046410  58.9645790   3.0846910
  65.5927920  66.9218680   4.3140870  65.7175340  67.7449850   4.7864680
  66.4593480  66.7109410   3.9665020  53.0645450  69.0149890   3.9858000
  53.8007930  68.4665350   4.2566570  53.4486370  69.8805900   3.8463990
  52.0703730  68.1995960  13.1743580  52.8716460  68.5208010  13.5878980
  51.5555550  67.8391540  13.8963490  60.9068360  64.3075830  13.1218990
  60.3006520  64.3307430  12.3814740  60.6022470  63.5758870  13.6586240
  62.3368730  68.0356120  11.7328400  63.2890480  67.9514140  11.6828640
  62.1896950  68.6997830  12.4062190  49.7901540  60.6869420  12.1179630
  50.2940560  60.1076700  12.6895860  49.0508960  60.9709650  12.6556000
  56.8439480  62.0940410  11.6515150  56.0785150  62.6625410  11.5669820
  57.0255440  61.8016620  10.7583380  63.9862830  63.8245740  12.2090170
  64.7272300  64.1621500  11.7057630  63.2235510  63.9937800  11.6559940
  51.8224620  58.8299010  13.0129700  51.8629960  58.5312880  13.9214930
  52.6770120  59.2306620  12.8537220  53.7630430  57.4091110  10.9804190
  53.2326890  56.9182060  10.3527530  54.4318500  57.8375310  10.4462120
  62.6608490  61.8760570  10.7445380  63.0749510  62.0305650  11.5935800
  61.7259490  62.0015790  10.9071160  63.1330660  59.2156730  12.7484530
  63.7151430  58.4609050  12.6605010  63.3092430  59.7464170  11.9716010
  54.2502730  54.3753480  11.0601480  54.1559600  53.7574230  10.3352350
  53.6700120  55.1019770  10.8331390  57.0164170  52.9326720   8.0928870
  56.5681470  52.9550980   7.2474420  56.3829370  52.5345740   8.6899170
  57.4223720  61.8281050   8.7141310  57.8411830  62.6713780   8.5417550
  56.5032350  61.9653090   8.4848090  59.7587620  59.5597230  10.0979150
  59.8783830  58.9638370  10.8373990  60.6181620  59.5966920   9.6780450
  62.0975520  60.1134420   8.6741660  61.5710740  60.6377040   8.0706800
  62.4406860  60.7461810   9.3051390  55.2731140  68.1334060   9.8299040
  54.7352230  68.8580120   9.5107740  55.5265100  67.6564400   9.0396380
  56.5256390  56.1018580  11.3554970  57.1156080  55.7934430  12.0432790
  55.7076630  55.6298330  11.5114870  61.3449820  55.7184390  11.5887990
  60.6565340  55.0565930  11.5237980  62.0655840  55.2722660  12.0336450
  58.1293350  69.3685270  10.0885690  58.0552050  70.2720410  10.3958060
  57.2272190  69.0497170  10.0607760  49.5320640  66.6959860   3.3919310
  49.8623650  65.8280920   3.1597950  49.9611640  66.9018380   4.2224270
  50.0210850  67.5630450   6.1300940  49.5841840  67.7431250   6.9625090
  50.5888530  68.3205070   5.9882660  65.6573030  67.0647450  10.4178250
  65.0575020  67.1240010   9.6742170  65.7866930  66.1252430  10.5475100
  49.8535280  60.0750680   2.4889820  49.1984120  59.8062320   1.8449520
  50.6913230  59.9655160   2.0391800  67.3590910  62.4062850   3.1024090
  67.7299740  61.6230170   2.6960060  67.9992840  63.0951950   2.9241390
  64.3424670  63.7899430   8.5154410  63.5284510  64.2196590   8.7780200
  64.7498870  64.4017840   7.9023460  50.8911210  60.4603250   7.0293160
  51.2584250  60.3730650   7.9089180  50.3222030  59.6969800   6.9300020
  65.6915070  58.9287630  10.0423630  65.4601160  58.7000380   9.1421580
  65.9519620  59.8487180   9.9968520  50.4427210  57.3712340  10.9351580
  49.5483260  57.3379100  11.2745290  50.9824760  57.5699130  11.7002830
  64.1303140  54.1544060  12.8203330  65.0073320  54.1627460  13.2037330
  64.1423980  53.4174900  12.2095680  65.5766410  58.0073600   3.7091350
  66.1003890  57.5136250   3.0781520  66.1625830  58.1423960   4.4538920
  65.7556130  58.0913470   7.2310900  64.8058840  58.0577010   7.3455890
  65.9369140  59.0013580   6.9960670  50.9466920  51.6460670   5.2834800
  51.5943110  51.0958050   4.8429960  51.3668760  51.9003820   6.1050610
  66.4953540  55.9007900   2.1821440  66.3852820  55.7463940   3.1203710
  67.2561130  55.3728840   1.9396850  64.8419260  51.8402030   8.6404440
  65.4791480  52.4536170   9.0063630  64.9894150  51.8762690   7.6953670
  50.6998920  51.8016340   8.0260120  50.3513740  52.2580160   8.7918300
  50.3686620  50.9073470   8.1082550  52.3063290  64.9735940  12.1913310
  52.2632920  64.6028850  13.0727770  52.4374300  65.9113510  12.3315130
  56.0069320  66.5295530   7.7923030  55.7660680  66.7970090   6.9053550
  56.9471960  66.7001260   7.8473890  58.2123740  52.9928220  11.5479540
  58.1512630  53.5850050  12.2974950  59.1524120  52.8854180  11.4029800
  60.8498300  52.6498280  11.1871830  61.4638710  52.9677570  10.5252910
  61.3947860  52.1646870  11.8067690  67.2673480  68.5489910   8.5933670
  66.7731760  68.9458780   7.8760800  66.6586770  67.9239120   8.9870950
  51.3719560  51.3292540  11.3010890  51.9202550  51.1480590  10.5377000
  51.4374870  50.5386650  11.8367200  52.1451320  67.9198190   9.3111090
  51.5511640  67.7882890  10.0501130  52.1375160  67.0836330   8.8453190
  61.5906340  51.2130420   7.5141120  60.7166180  51.5465530   7.3114050
  61.4817090  50.7403600   8.3392990  62.4978320  53.4201290   8.8982840
  62.1691680  52.6053050   8.5184570  63.4460620  53.3771100   8.7748530
  64.9512930  69.1913330   5.8720410  64.4915900  69.9429140   5.4978430
  64.3225390  68.4719800   5.8135210  51.7763550  65.2856570   8.2619130
  51.0497610  64.6661860   8.1945080  51.8372700  65.6797180   7.3917210
  55.3808650  67.5001570   5.0468540  55.8973670  66.8888930   4.5216800
  56.0306030  68.0030350   5.5379550  58.1204150  68.3910060   5.8737520
  58.4081960  68.1364360   4.9970530  58.6327370  67.8387420   6.4643090
  59.3381160  52.1300260   6.4534030  58.5552950  52.6045760   6.7330790
  59.0444090  51.2255090   6.3447210  63.8902230  52.8323360   4.4983120
  64.3310320  52.7768460   3.6504720  63.6209820  53.7481370   4.5693300
  65.7540800  52.4638600   2.5091940  65.6929200  51.5199820   2.3622960
  66.5332830  52.5718690   3.0545400  61.7260360  51.2129460   3.2033130
  62.3289730  51.7849670   3.6781650  60.9853350  51.7768900   2.9807030
  58.1876510  69.3126160  13.2405720  59.1143820  69.0770430  13.2841680
  58.1726940  70.1398160  12.7591750  55.3740120  51.9770910  13.0047600
  55.0924390  52.4804510  12.2408420  55.7559820  51.1792660  12.6389730
  61.9755580  51.3924490  13.5828070  61.8621030  51.7119100  14.4779590
  62.7925320  51.7937000  13.2865350  64.7554070  68.5396020  13.0646760
  65.5479390  68.0445250  12.8572720  65.0487220  69.2186160  13.6722370
  60.8813730  40.6373470  77.8180260  60.8007780  39.7228080  77.5471970
  60.4678150  41.1340540  77.1119970  59.0131770  42.4152490  79.6989530
  58.2373870  41.9352930  79.9888100  59.6644700  41.7358140  79.5245690
  53.0297600  42.7272300  80.5765290  52.1982480  42.4721010  80.9761800
  53.6378580  42.7983070  81.3123210  63.0339200  46.8212680  78.4788660
  62.5720730  46.0499920  78.8075830  63.8464750  46.8478750  78.9841110
  53.0098860  46.7612390  80.7723310  53.3126900  45.8710130  80.5933530
  53.7542450  47.3182610  80.5445560  51.4389550  37.6874190  74.3607680
  50.5506250  38.0290160  74.2587560  51.7230740  37.4874510  73.4688510
  49.4022560  40.2879840  80.2447380  49.9738670  39.5202040  80.2451020
  49.4024100  40.5868600  79.3353990  59.2602510  49.1070690  78.0992650
  58.6413950  49.5628190  77.5287090  60.1154290  49.2622150  77.6982350
  58.4540760  45.0909680  79.7059690  58.3849040  44.1499620  79.5448820
  59.2160620  45.1811090  80.2782260  59.4845930  37.8980060  79.9328620
  59.8610750  37.0251940  79.8202290  59.3865440  38.2338760  79.0419060
  53.6150940  36.2705690  75.3946060  53.7217690  37.1709420  75.7014820
  52.7043300  36.2223660  75.1040710  63.2670050  35.3930500  76.8656960
  64.0879670  34.9027070  76.9082440  63.3004130  35.9828160  77.6188800
  51.2634100  38.1924700  80.6398650  51.9444210  38.4563070  81.2586050
  50.9482150  37.3525570  80.9736660  55.4558670  39.2392060  79.7271240
  55.9636890  39.7373030  80.3676260  55.9871910  38.4627260  79.5510600
  60.1265860  43.9909930  75.4924560  59.5083130  44.4559380  74.9287280
  60.6389110  44.6837410  75.9094070  63.5031530  37.3330880  79.6384500
  62.7987100  37.6215770  80.2187610  63.8643690  38.1430990  79.2784060
  49.4949060  44.6766460  72.8664190  49.1177040  45.1653560  72.1349090
  49.7522130  45.3491740  73.4970720  65.1194310  46.9506010  81.9011980
  64.4357830  47.6205120  81.8928650  65.6588600  47.1486660  81.1356840
  66.5718450  36.7785670  80.0293710  65.6243360  36.8124650  80.1609140
  66.8968440  37.5924620  80.4143070  57.1037990  33.0782850  78.3249700
  57.4112970  32.5229740  77.6085200  56.1738690  33.2127310  78.1422690
  62.6553050  48.7950140  80.6157160  62.6680210  48.3912430  79.7479420
  62.1028270  49.5697430  80.5118590  63.9498470  45.5166360  75.7047330
  63.8394800  44.5740690  75.8296750  63.9466720  45.8782000  76.5910090
  59.4918750  41.1431680  75.0609820  58.5648030  41.0769060  75.2898290
  59.6443570  42.0811810  74.9465060  59.4787830  37.4148680  72.0576980
  58.5391500  37.5762640  72.1429440  59.7971090  38.1334360  71.5112970
  66.0000590  42.0967200  82.0356010  65.1719220  42.1660290  81.5606140
  66.5951070  42.6821510  81.5671840  63.5216040  42.7051980  75.5645070
  62.9028460  42.3671530  74.9171370  63.5040490  42.0611740  76.2724260
  55.0975390  41.6696420  77.8429550  54.6932390  40.9573670  77.3475450
  55.1838510  41.3249660  78.7317590  55.5657090  45.3563980  80.0068760
  55.2685380  44.7509450  79.3276540  56.5156910  45.3941290  79.8958120
  61.6980740  41.9438790  72.5717820  62.1374020  41.1061220  72.4255640
  62.4109160  42.5768190  72.6581960  59.8076120  46.8834860  76.5399060
  60.2472030  47.6259190  76.1254450  59.7463010  47.1261430  77.4638020
  65.2797880  33.1981600  70.8858860  64.9670540  33.2908430  71.7857930
  66.0410350  33.7762630  70.8356290  51.7980020  40.5641400  75.3436200
  51.6777620  41.2903490  74.7317470  51.4880910  39.7944310  74.8664110
  49.4365390  43.7356540  81.1504840  49.5145810  43.8705310  80.2060560
  50.0507070  43.0272430  81.3432960  50.6813020  45.4356730  77.5611020
  50.2741100  45.5771320  76.7064620  51.5726030  45.1516890  77.3582230
  62.4746300  49.8703980  73.8962070  62.3147440  49.5806920  74.7943900
  62.3093010  49.0944110  73.3607300  54.9534680  49.6502510  75.6733690
  54.7777160  48.7338050  75.4601490  54.0990420  50.0089800  75.9131490
  62.1772430  47.3791540  72.4560070  61.4837590  47.3768830  71.7962350
  62.9195290  46.9550860  72.0254240  61.7422360  49.0054250  76.5308560
  62.1979310  48.2243630  76.8447180  62.0814880  49.7161070  77.0749740
  54.2643680  33.9076470  78.7259870  53.8211830  34.6886010  78.3944390
  54.8228670  34.2306360  79.4330810  57.3802500  33.5287170  73.6065700
  56.7556680  33.5247040  74.3319010  57.2932620  32.6618130  73.2101670
  56.3019580  34.4523800  80.5849470  56.5991910  35.3586630  80.5041490
  56.8505140  33.9642580  79.9709040  54.0557900  39.0310040  76.4541120
  53.8298820  38.8147210  77.3587740  53.2750430  39.4638500  76.1087090
  61.2855660  39.0373410  75.0531770  60.6864550  39.7609210  74.8695390
  61.8335270  38.9750190  74.2708220  59.8920530  37.6736950  77.0835050
  60.2850100  37.9909150  76.2703740  60.2537380  36.7948830  77.1979570
  48.9284700  34.2637750  79.3065250  48.6397750  34.8340610  80.0190230
  49.6730460  33.7842200  79.6696480  49.1154930  38.2057870  70.5167970
  49.0329600  39.1488630  70.6582960  48.7637990  38.0632780  69.6380320
  60.4775670  40.2642700  81.1785830  59.7456790  40.7729510  81.5275930
  60.0800010  39.4472680  80.8774610  56.9153060  36.9396900  79.5838320
  56.9189120  36.4986850  78.7342860  57.8104180  37.2614230  79.6910140
  52.7655440  36.8223390  78.5432530  52.4255490  37.2998620  79.2999580
  52.0032760  36.3688510  78.1833630  56.9773210  37.9408980  72.5745080
  57.0986030  37.8995460  73.5230900  56.5921720  38.8033130  72.4191810
  60.9401580  35.7176380  80.5908770  60.9574320  36.1685030  81.4350620
  60.6917160  34.8182020  80.8042210  55.9894710  40.2510120  71.9728380
  55.4211610  39.8028370  71.3464290  56.6983710  40.6102900  71.4393530
  50.0801520  35.7442370  77.4597200  49.7948440  35.3798040  78.2975820
  50.0180380  35.0122830  76.8460340  53.5342190  44.2468310  74.2454790
  52.7604450  43.7065930  74.0853510  54.2636820  43.7274920  73.9072550
  64.2930170  43.2433670  80.0381180  65.0129290  43.7388960  79.6477290
  64.0911990  42.5651560  79.3935050  59.7540110  34.6371630  74.1810570
  58.9404720  34.1384800  74.1055880  59.5602060  35.4769880  73.7646920
  62.4688500  39.0091280  72.4772730  63.3568120  39.3208510  72.3024070
  62.4393590  38.1363530  72.0853310  53.5779590  43.9148690  77.8833600
  54.0958260  43.1116950  77.8290490  53.1263610  43.8527830  78.7250430
  58.4649090  45.1814970  73.1560900  58.8064790  45.9257200  72.6604220
  57.6361800  45.4946090  73.5185730  64.7402770  40.3203120  71.9452590
  64.6566490  40.7517340  71.0949030  65.4596960  40.7801470  72.3779410
  65.7690020  47.1745380  74.6734720  65.1266180  46.5201000  74.9478440
  65.3820680  47.5800470  73.8975390  61.3476500  44.5030810  78.5206410
  61.7000320  43.9058940  77.8607780  60.4638830  44.1775040  78.6914660
  57.4339780  45.2628500  75.9276820  58.1210910  45.8097710  76.3084410
  56.6472200  45.8069230  75.9626430  49.5732180  40.8801320  71.4193900
  50.4427030  41.1626120  71.7029820  49.0822500  41.6937190  71.3042710
  56.7366990  42.2674530  75.5402180  57.1929770  43.0779780  75.7662370
  56.3855200  41.9497670  76.3720670  52.6378770  32.6112180  76.0124700
  52.5093400  32.6030080  76.9609620  51.8140790  32.9495270  75.6615710
  60.3131680  45.7813220  81.4871930  60.9553910  45.0806380  81.6004100
  60.8381030  46.5611660  81.3068820  64.1587400  46.0661840  71.2111070
  63.9324980  45.3492280  71.8035710  63.7683600  45.8174280  70.3732820
  49.9403430  50.0928700  71.9855530  50.3001070  50.6918040  71.3312800
  49.7995770  50.6388590  72.7590560  63.7403650  43.9833780  72.8725230
  63.4525350  44.4446470  73.6603110  64.5355820  43.5231550  73.1409450
  55.9572050  47.4759900  72.8029200  55.9482150  48.2089590  72.1873710
  55.0370410  47.2291480  72.8956160  51.5578690  42.6974790  73.5475960
  50.9506640  43.4373690  73.5571260  52.0328040  42.7874150  72.7214160
  64.4973510  35.8182550  74.0320410  63.8686670  35.9228220  73.3178640
  64.0025430  36.0379330  74.8214290  58.9431650  47.5388140  71.4654390
  59.0443630  47.3352130  70.5356370  58.0433390  47.2846420  71.6702170
  56.4657540  38.0968500  75.4478290  55.7573690  38.5654840  75.8891900
  56.7502020  37.4390510  76.0823480  60.4972970  34.8219160  76.8874080
  60.3740750  34.8405290  75.9383590  61.4457530  34.8698100  77.0072480
  57.5849760  50.0574460  76.1602060  57.8391260  50.0195850  75.2381430
  56.6362240  49.9307790  76.1530310  54.6692560  36.4053580  72.8229000
  55.5183090  36.8423730  72.7569190  54.3023830  36.7173840  73.6501060
  63.5902340  40.9766340  77.7360570  62.6492480  40.9916570  77.9108260
  63.9046410  40.1902300  78.1820870  53.5683980  42.6585940  71.2964530
  54.3347250  42.5467300  71.8589960  53.6458670  41.9623910  70.6441300
  52.2630740  40.0911010  71.9797420  52.3434330  39.1438520  72.0914820
  53.1550490  40.4217890  72.0858080  65.5927920  48.1475190  79.4114830
  65.7175340  48.9706360  79.8838640  66.4593480  47.9365920  79.0638980
  53.0645450  50.2406400  79.0831960  53.8007930  49.6921860  79.3540530
  53.4486370  51.1062410  78.9437950  49.9490930  46.3079970  74.9573470
  49.0230710  46.5501110  74.9478880  50.4147360  47.1354230  74.8358220
  56.1747760  49.4136710  70.9057530  56.9676370  49.7025540  70.4539320
  55.6552110  48.9828880  70.2270010  65.2277930  48.6406840  72.3294270
  64.9419440  48.2271980  71.5148450  65.0297480  49.5694550  72.2094790
  56.6925160  44.6340120  70.7699880  56.5875800  44.0192470  71.4961260
  56.5249380  44.1106010  69.9862890  59.9327890  43.6960150  71.3741870
  59.3837990  44.1429450  72.0184610  60.5547150  43.1909400  71.8979540
  55.6003010  42.6551070  73.2707170  56.0219430  42.4890940  74.1138560
  55.7253850  41.8451300  72.7762310  58.1130650  41.6788680  70.5184270
  58.6336310  40.9637700  70.1525420  58.7599050  42.3174550  70.8184780
  54.4961910  38.7284300  70.2165330  54.2950970  37.8651660  70.5778670
  54.3253960  38.6417660  69.2786930  61.9750220  33.5392530  72.7452210
  62.2552510  32.6960430  73.1011630  61.2015950  33.7715640  73.2590960
  53.2944710  35.8284920  70.2043210  53.5970610  35.8352350  69.2962360
  54.0339300  35.4782780  70.7010870  56.5129640  34.7719540  71.1899410
  56.1651640  34.0943530  70.6101860  56.7142410  34.3109050  72.0042800
  58.6778680  49.7600290  72.8086010  59.5729470  50.0985260  72.8304770
  58.7096310  49.0379700  72.1810290  52.3174840  45.1327340  71.0373010
  52.7549710  45.6757010  71.6930590  52.8022570  44.3074290  71.0469350
  49.5320640  47.9216370  78.4893270  49.8623650  47.0537430  78.2571910
  49.9611640  48.1274890  79.3198230  54.1282560  46.2525380  76.1495240
  53.8278100  46.1290350  77.0499150  54.0220050  45.3933970  75.7410970
  66.8974480  46.0321780  70.8521920  66.0667440  46.0998430  71.3229150
  67.0746310  46.9225900  70.5488780  66.3530940  42.7769260  73.3556120
  67.1149850  43.3465910  73.4615810  66.3685310  42.2096460  74.1264430
  49.8535280  41.3007190  77.5863780  49.1984120  41.0318830  76.9423480
  50.6913230  41.1911670  77.1365760  67.3590910  43.6319360  78.1998050
  67.7299740  42.8486680  77.7934020  67.9992840  44.3208460  78.0215350
  66.4050110  43.0703630  70.5128640  66.6798950  43.9782510  70.3847860
  66.2160850  43.0066160  71.4490630  62.8025720  36.0948480  71.8082270
  63.2210600  35.9079460  70.9678930  62.4961780  35.2427530  72.1185200
  66.3015450  41.0072620  75.5058070  65.9259050  40.2400550  75.0739360
  65.5718570  41.3895320  75.9933000  49.0673360  38.5106120  73.5289110
  48.1637440  38.7736320  73.3540770  49.5513980  38.7817290  72.7489070
  65.5766410  39.2330110  78.8065310  66.1003890  38.7392760  78.1755480
  66.1625830  39.3680470  79.5512880  51.6100570  37.5671660  71.4383490
  52.3192270  37.1454880  70.9530770  50.8940510  37.6346890  70.8066840
  51.2574730  33.6210990  70.4786140  51.9802860  34.1619930  70.7967360
  51.5299250  33.3474410  69.6027680  65.0666380  38.4903460  74.7457720
  65.5625500  38.2574330  75.5306600  64.8682450  37.6515300  74.3295360
  50.9466920  32.8717180  80.3808760  51.5943110  32.3214560  79.9403920
  51.3668760  33.1260330  81.2024570  66.4953540  37.1264410  77.2795400
  66.3852820  36.9720450  78.2177670  67.2561130  36.5985350  77.0370810
  67.3843810  34.9572330  70.5201540  68.3093120  34.8253510  70.3119830
  67.3619600  35.0365150  71.4737990  67.4582300  35.7282990  73.1458250
  66.6633800  35.6628110  73.6751160  67.6625580  36.6633630  73.1343600
  64.4000720  49.7674540  77.1396640  64.9959790  49.4459110  76.4631060
  64.6578870  49.2946360  77.9309910  64.9512930  50.4169840  80.9694370
  64.4915900  51.1685650  80.5952390  64.3225390  49.6976310  80.9109170
  55.3808650  48.7258080  80.1442500  55.8973670  48.1145440  79.6190760
  56.0306030  49.2286860  80.6353510  58.1204150  49.6166570  80.9711480
  58.4081960  49.3620870  80.0944490  58.6327370  49.0643930  81.5617050
  59.3381160  33.3556770  81.5507990  58.5552950  33.8302270  81.8304750
  59.0444090  32.4511600  81.4421170  63.8902230  34.0579870  79.5957080
  64.3310320  34.0024970  78.7478680  63.6209820  34.9737880  79.6667260
  65.7540800  33.6895110  77.6065900  65.6929200  32.7456330  77.4596920
  66.5332830  33.7975200  78.1519360  50.0593550  49.8287470  76.5689850
  49.8915590  49.1958150  77.2671740  49.1928060  50.0346870  76.2184040
  50.6821570  33.6604250  74.0721710  51.4400930  33.7733130  73.4985740
  50.2198740  34.4973450  74.0265140  57.2235380  35.7743520  77.0624020
  56.4109890  35.4000410  76.7219900  57.7277020  35.0188600  77.3645210
  61.7260360  32.4385970  78.3007090  62.3289730  33.0106180  78.7755610
  60.9853350  33.0025410  78.0780990  64.8694960  32.8407530  73.5747370
  65.0645590  33.7390980  73.8414800  64.0824830  32.6094610  74.0680320
  51.6656250  48.5220700  74.0139990  51.1403870  48.9028730  73.3101950
  51.5900830  49.1471470  74.7349700  53.0546720  34.1868300  72.6123680
  53.5839480  33.3998100  72.4831630  53.6875040  34.8659490  72.8459210
  55.2484560  33.9243440  75.6669070  54.6187300  33.2230750  75.8339200
  54.7089700  34.6847570  75.4502230  66.4221570  50.0808240  75.3353930
  66.5973760  49.3945980  74.6914850  65.7243140  50.6055290  74.9430600
  54.2649220  50.4703080  72.8889240  54.9968040  50.1862360  72.3413130
  54.5242890  50.2316360  73.7788620  53.4264010  46.5867810  72.8935570
  52.7972890  47.0552910  73.4421400  53.5411840  45.7417030  73.3281760
  63.0339200  46.8212680  59.7045170  62.5720730  46.0499920  60.0332340
  63.8464750  46.8478750  60.2097620  59.2602510  49.1070690  59.3249160
  58.6413950  49.5628190  58.7543600  60.1154290  49.2622150  58.9238860
  67.5569600  37.4097250  64.6557100  66.8521770  37.7978960  64.1372210
  67.8227520  38.1047540  65.2578030  53.7394770  33.8790620  65.2191170
  53.7413210  34.3963010  64.4137070  52.9099080  33.4020800  65.1961100
  65.1194310  46.9506010  63.1268490  64.4357830  47.6205120  63.1185160
  65.6588600  47.1486660  62.3613350  66.5718450  36.7785670  61.2550220
  65.6243360  36.8124650  61.3865650  66.8968440  37.5924620  61.6399580
  62.6553050  48.7950140  61.8413670  62.6680210  48.3912430  60.9735930
  62.1028270  49.5697430  61.7375100  63.9498470  45.5166360  56.9303840
  63.8394800  44.5740690  57.0553260  63.9466720  45.8782000  57.8166600
  62.0538490  43.6979980  63.1696280  62.4707280  43.4840090  62.3349740
  62.7778310  43.9552770  63.7404900  66.0000590  42.0967200  63.2612520
  65.1719220  42.1660290  62.7862650  66.5951070  42.6821510  62.7928350
  63.5216040  42.7051980  56.7901580  62.9028460  42.3671530  56.1427880
  63.5040490  42.0611740  57.4980770  62.9642600  38.8836520  64.2067390
  62.5513780  39.7090230  64.4607380  62.2318550  38.2981560  64.0143750
  63.6542700  48.9295850  64.8948370  63.1773260  49.7368040  64.7020980
  62.9704490  48.2774180  65.0474580  54.6575520  45.0945670  67.8833070
  53.7604050  45.3185640  68.1306470  54.6828390  45.2180610  66.9344470
  55.2827090  47.9080690  68.6675590  55.2542520  48.3123640  67.8004020
  55.1192060  46.9791050  68.5047190  65.2797880  33.1981600  52.1115370
  64.9670540  33.2908430  53.0114440  66.0410350  33.7762630  52.0612800
  67.2341910  48.6907790  69.9639760  67.7101630  49.1690680  70.6428840
  67.8549070  48.6225280  69.2385260  66.6375160  45.8820640  67.1239770
  66.7638220  45.6432520  66.2056950  66.6796540  45.0505180  67.5961850
  60.4991900  49.5848640  65.6934580  61.0136570  49.4956650  66.4957010
  59.6560980  49.9308340  65.9862490  62.4746300  49.8703980  55.1218580
  62.3147440  49.5806920  56.0200410  62.3093010  49.0944110  54.5863810
  61.7422360  49.0054250  57.7565070  62.1979310  48.2243630  58.0703690
  62.0814880  49.7161070  58.3006250  66.4899170  37.9353100  68.0889510
  65.8743440  38.4432770  67.5604970  66.1695590  37.0351430  68.0315450
  58.5513490  36.7744990  65.5551700  58.0892860  36.9828010  66.3671640
  58.1491600  35.9604340  65.2522370  63.5518000  37.9953940  66.6848360
  62.7011590  37.6959690  67.0057430  63.3919790  38.2395950  65.7732180
  60.6467710  39.4955690  68.7847150  60.9721120  38.6619440  68.4449380
  61.4348040  40.0184210  68.9325480  61.2855660  39.0373410  56.2788280
  60.6864550  39.7609210  56.0951900  61.8335270  38.9750190  55.4964730
  56.4957110  39.9295620  68.3457900  56.4000710  38.9890350  68.1958300
  57.3389090  40.1510690  67.9505970  51.6267650  36.3409290  66.4991680
  51.2331040  37.1884500  66.7064460  50.9386050  35.7035660  66.6900320
  58.2012700  36.4244260  69.5688420  57.5111020  36.2316460  70.2034510
  58.9445000  36.7078900  70.1012720  64.3672330  33.1308560  67.6551660
  64.6918100  32.3998220  68.1809640  64.4028840  32.8122200  66.7532650
  64.2930170  43.2433670  61.2637690  65.0129290  43.7388960  60.8733800
  64.0911990  42.5651560  60.6191560  59.6748970  43.3142730  67.1506690
  59.6086280  42.3938400  66.8964280  59.0454110  43.4118170  67.8651330
  62.4688500  39.0091280  53.7029240  63.3568120  39.3208510  53.5280580
  62.4393590  38.1363530  53.3109820  54.2637250  41.3394300  68.9055360
  53.9637390  41.4851480  68.0083180  55.0348490  40.7799590  68.8128750
  59.6065700  46.1363300  66.9010490  59.6210240  45.2044260  66.6829400
  58.8990800  46.2223060  67.5400260  64.7402770  40.3203120  53.1709100
  64.6566490  40.7517340  52.3205540  65.4596960  40.7801470  53.6035920
  65.8176910  42.7770640  66.2479070  65.0925100  43.3699420  66.0508460
  66.3452370  42.7694180  65.4492440  65.7690020  47.1745380  55.8991230
  65.1266180  46.5201000  56.1734950  65.3820680  47.5800470  55.1231900
  61.3476500  44.5030810  59.7462920  61.7000320  43.9058940  59.0864290
  60.4638830  44.1775040  59.9171170  59.0399600  47.7780870  63.9950990
  59.6841820  47.9840250  64.6724410  59.4029040  47.0169270  63.5421840
  60.3131680  45.7813220  62.7128440  60.9553910  45.0806380  62.8260610
  60.8381030  46.5611660  62.5325330  64.1587400  46.0661840  52.4367580
  63.9324980  45.3492280  53.0292220  63.7683600  45.8174280  51.5989330
  62.0869300  46.5808120  65.9164500  62.4225540  47.1674810  66.5942420
  61.1669640  46.4500830  66.1462290  49.6372700  34.3703300  66.6987910
  48.9231220  34.5700220  67.3040520  50.0567740  33.5942870  67.0702710
  49.9245290  48.3583560  67.6854440  50.0336410  47.4178300  67.5449830
  49.2725850  48.6238310  67.0368170  57.9157880  46.6299450  69.0852560
  57.5954750  45.9108690  69.6298250  57.2416240  47.3054520  69.1588620
  64.4973510  35.8182550  55.2576920  63.8686670  35.9228220  54.5435150
  64.0025430  36.0379330  56.0470800  58.0913470  39.5165200  64.6727330
  58.5898720  39.9911020  65.3379180  58.2336420  38.5928720  64.8797360
  65.2980330  35.7333160  65.5155720  64.7953930  36.4738560  65.8549530
  66.1136990  36.1217160  65.1992510  63.5902340  40.9766340  58.9617080
  62.6492480  40.9916570  59.1364770  63.9046410  40.1902300  59.4077380
  65.5927920  48.1475190  60.6371340  65.7175340  48.9706360  61.1095150
  66.4593480  47.9365920  60.2895490  52.0703730  49.4252470  69.4974050
  52.8716460  49.7464520  69.9109450  51.5555550  49.0648050  70.2193960
  60.9068360  45.5332340  69.4449460  60.3006520  45.5563940  68.7045210
  60.6022470  44.8015380  69.9816710  62.3368730  49.2612630  68.0558870
  63.2890480  49.1770650  68.0059110  62.1896950  49.9254340  68.7292660
  65.2277930  48.6406840  53.5550780  64.9419440  48.2271980  52.7404960
  65.0297480  49.5694550  53.4351300  56.8439480  43.3196920  67.9745620
  56.0785150  43.8881920  67.8900290  57.0255440  43.0273130  67.0813850
  63.9862830  45.0502250  68.5320640  64.7272300  45.3878010  68.0288100
  63.2235510  45.2194310  67.9790410  51.8224620  40.0555520  69.3360170
  51.8629960  39.7569390  70.2445400  52.6770120  40.4563130  69.1767690
  53.7630430  38.6347620  67.3034660  53.2326890  38.1438570  66.6758000
  54.4318500  39.0631820  66.7692590  62.6608490  43.1017080  67.0675850
  63.0749510  43.2562160  67.9166270  61.7259490  43.2272300  67.2301630
  63.1330660  40.4413240  69.0715000  63.7151430  39.6865560  68.9835480
  63.3092430  40.9720680  68.2946480  54.2502730  35.6009990  67.3831950
  54.1559600  34.9830740  66.6582820  53.6700120  36.3276280  67.1561860
  57.0164170  34.1583230  64.4159340  56.5681470  34.1807490  63.5704890
  56.3829370  33.7602250  65.0129640  57.4223720  43.0537560  65.0371780
  57.8411830  43.8970290  64.8648020  56.5032350  43.1909600  64.8078560
  59.7587620  40.7853740  66.4209620  59.8783830  40.1894880  67.1604460
  60.6181620  40.8223430  66.0010920  62.0975520  41.3390930  64.9972130
  61.5710740  41.8633550  64.3937270  62.4406860  41.9718320  65.6281860
  56.5256390  37.3275090  67.6785440  57.1156080  37.0190940  68.3663260
  55.7076630  36.8554840  67.8345340  61.3449820  36.9440900  67.9118460
  60.6565340  36.2822440  67.8468450  62.0655840  36.4979170  68.3566920
  58.1293350  50.5941780  66.4116160  58.0552050  51.4976920  66.7188530
  57.2272190  50.2753680  66.3838230  65.6573030  48.2903960  66.7408720
  65.0575020  48.3496520  65.9972640  65.7866930  47.3508940  66.8705570
  66.8974480  46.0321780  52.0778430  66.0667440  46.0998430  52.5485660
  67.0746310  46.9225900  51.7745290  66.3530940  42.7769260  54.5812630
  67.1149850  43.3465910  54.6872320  66.3685310  42.2096460  55.3520940
  67.3590910  43.6319360  59.4254560  67.7299740  42.8486680  59.0190530
  67.9992840  44.3208460  59.2471860  64.3424670  45.0155940  64.8384880
  63.5284510  45.4453100  65.1010670  64.7498870  45.6274350  64.2253930
  66.4050110  43.0703630  51.7385150  66.6798950  43.9782510  51.6104370
  66.2160850  43.0066160  52.6747140  66.3015450  41.0072620  56.7314580
  65.9259050  40.2400550  56.2995870  65.5718570  41.3895320  57.2189510
  65.6915070  40.1544140  66.3654100  65.4601160  39.9256890  65.4652050
  65.9519620  41.0743690  66.3198990  64.1303140  35.3800570  69.1433800
  65.0073320  35.3883970  69.5267800  64.1423980  34.6431410  68.5326150
  65.5766410  39.2330110  60.0321820  66.1003890  38.7392760  59.4011990
  66.1625830  39.3680470  60.7769390  65.7556130  39.3169980  63.5541370
  64.8058840  39.2833520  63.6686360  65.9369140  40.2270090  63.3191140
  65.0666380  38.4903460  55.9714230  65.5625500  38.2574330  56.7563110
  64.8682450  37.6515300  55.5551870  66.4953540  37.1264410  58.5051910
  66.3852820  36.9720450  59.4434180  67.2561130  36.5985350  58.2627320
  64.8419260  33.0658540  64.9634910  65.4791480  33.6792680  65.3294100
  64.9894150  33.1019200  64.0184140  67.3843810  34.9572330  51.7458050
  68.3093120  34.8253510  51.5376340  67.3619600  35.0365150  52.6994500
  67.4582300  35.7282990  54.3714760  66.6633800  35.6628110  54.9007670
  67.6625580  36.6633630  54.3600110  64.4000720  49.7674540  58.3653150
  64.9959790  49.4459110  57.6887570  64.6578870  49.2946360  59.1566420
  52.3063290  46.1992450  68.5143780  52.2632920  45.8285360  69.3958240
  52.4374300  47.1370020  68.6545600  58.2123740  34.2184730  67.8710010
  58.1512630  34.8106560  68.6205420  59.1524120  34.1110690  67.7260270
  60.8498300  33.8754790  67.5102300  61.4638710  34.1934080  66.8483380
  61.3947860  33.3903380  68.1298160  67.2673480  49.7746420  64.9164140
  66.7731760  50.1715290  64.1991270  66.6586770  49.1495630  65.3101420
  64.9512930  50.4169840  62.1950880  64.4915900  51.1685650  61.8208900
  64.3225390  49.6976310  62.1365680  65.7540800  33.6895110  58.8322410
  65.6929200  32.7456330  58.6853430  66.5332830  33.7975200  59.3775870
  61.7260360  32.4385970  59.5263600  62.3289730  33.0106180  60.0012120
  60.9853350  33.0025410  59.3037500  64.8694960  32.8407530  54.8003880
  65.0645590  33.7390980  55.0671310  64.0824830  32.6094610  55.2936830
  58.1876510  50.5382670  69.5636190  59.1143820  50.3026940  69.6072150
  58.1726940  51.3654670  69.0822220  66.4221570  50.0808240  56.5610440
  66.5973760  49.3945980  55.9171360  65.7243140  50.6055290  56.1687110
  55.3740120  33.2027420  69.3278070  55.0924390  33.7061020  68.5638890
  55.7559820  32.4049170  68.9620200  61.9755580  32.6181000  69.9058540
  61.8621030  32.9375610  70.8010060  62.7925320  33.0193510  69.6095820
  64.7554070  49.7652530  69.3877230  65.5479390  49.2701760  69.1803190
  65.0487220  50.4442670  69.9952840  53.6150940  36.2705690  37.8459080
  53.7217690  37.1709420  38.1527840  52.7043300  36.2223660  37.5553730
  63.2670050  35.3930500  39.3169980  64.0879670  34.9027070  39.3595460
  63.3004130  35.9828160  40.0701820  67.5569600  37.4097250  45.8813610
  66.8521770  37.7978960  45.3628720  67.8227520  38.1047540  46.4834540
  63.5031530  37.3330880  42.0897520  62.7987100  37.6215770  42.6700630
  63.8643690  38.1430990  41.7297080  65.1194310  46.9506010  44.3525000
  64.4357830  47.6205120  44.3441670  65.6588600  47.1486660  43.5869860
  66.5718450  36.7785670  42.4806730  65.6243360  36.8124650  42.6122160
  66.8968440  37.5924620  42.8656090  57.1037990  33.0782850  40.7762720
  57.4112970  32.5229740  40.0598220  56.1738690  33.2127310  40.5935710
  63.9498470  45.5166360  38.1560350  63.8394800  44.5740690  38.2809770
  63.9466720  45.8782000  39.0423110  59.4918750  41.1431680  37.5122840
  58.5648030  41.0769060  37.7411310  59.6443570  42.0811810  37.3978080
  59.4787830  37.4148680  34.5090000  58.5391500  37.5762640  34.5942460
  59.7971090  38.1334360  33.9625990  66.0000590  42.0967200  44.4869030
  65.1719220  42.1660290  44.0119160  66.5951070  42.6821510  44.0184860
  63.5216040  42.7051980  38.0158090  62.9028460  42.3671530  37.3684390
  63.5040490  42.0611740  38.7237280  62.9642600  38.8836520  45.4323900
  62.5513780  39.7090230  45.6863890  62.2318550  38.2981560  45.2400260
  61.6980740  41.9438790  35.0230840  62.1374020  41.1061220  34.8768660
  62.4109160  42.5768190  35.1094980  65.2797880  33.1981600  33.3371880
  64.9670540  33.2908430  34.2370950  66.0410350  33.7762630  33.2869310
  67.2341910  48.6907790  51.1896270  67.7101630  49.1690680  51.8685350
  67.8549070  48.6225280  50.4641770  66.6375160  45.8820640  48.3496280
  66.7638220  45.6432520  47.4313460  66.6796540  45.0505180  48.8218360
  62.4746300  49.8703980  36.3475090  62.3147440  49.5806920  37.2456920
  62.3093010  49.0944110  35.8120320  62.1772430  47.3791540  34.9073090
  61.4837590  47.3768830  34.2475370  62.9195290  46.9550860  34.4767260
  66.4899170  37.9353100  49.3146020  65.8743440  38.4432770  48.7861480
  66.1695590  37.0351430  49.2571960  54.2643680  33.9076470  41.1772890
  53.8211830  34.6886010  40.8457410  54.8228670  34.2306360  41.8843830
  63.5518000  37.9953940  47.9104870  62.7011590  37.6959690  48.2313940
  63.3919790  38.2395950  46.9988690  60.6467710  39.4955690  50.0103660
  60.9721120  38.6619440  49.6705890  61.4348040  40.0184210  50.1581990
  57.3802500  33.5287170  36.0578720  56.7556680  33.5247040  36.7832030
  57.2932620  32.6618130  35.6614690  61.2855660  39.0373410  37.5044790
  60.6864550  39.7609210  37.3208410  61.8335270  38.9750190  36.7221240
  59.8920530  37.6736950  39.5348070  60.2850100  37.9909150  38.7216760
  60.2537380  36.7948830  39.6492590  49.1154930  38.2057870  32.9680990
  49.0329600  39.1488630  33.1095980  48.7637990  38.0632780  32.0893340
  56.9153060  36.9396900  42.0351340  56.9189120  36.4986850  41.1855880
  57.8104180  37.2614230  42.1423160  56.9773210  37.9408980  35.0258100
  57.0986030  37.8995460  35.9743920  56.5921720  38.8033130  34.8704830
  60.9401580  35.7176380  43.0421790  60.9574320  36.1685030  43.8863640
  60.6917160  34.8182020  43.2555230  55.9894710  40.2510120  34.4241400
  55.4211610  39.8028370  33.7977310  56.6983710  40.6102900  33.8906550
  64.3672330  33.1308560  48.8808170  64.6918100  32.3998220  49.4066150
  64.4028840  32.8122200  47.9789160  64.2930170  43.2433670  42.4894200
  65.0129290  43.7388960  42.0990310  64.0911990  42.5651560  41.8448070
  59.7540110  34.6371630  36.6323590  58.9404720  34.1384800  36.5568900
  59.5602060  35.4769880  36.2159940  62.4688500  39.0091280  34.9285750
  63.3568120  39.3208510  34.7537090  62.4393590  38.1363530  34.5366330
  64.7402770  40.3203120  34.3965610  64.6566490  40.7517340  33.5462050
  65.4596960  40.7801470  34.8292430  65.8176910  42.7770640  47.4735580
  65.0925100  43.3699420  47.2764970  66.3452370  42.7694180  46.6748950
  65.7690020  47.1745380  37.1247740  65.1266180  46.5201000  37.3991460
  65.3820680  47.5800470  36.3488410  64.1587400  46.0661840  33.6624090
  63.9324980  45.3492280  34.2548730  63.7683600  45.8174280  32.8245840
  63.7403650  43.9833780  35.3238250  63.4525350  44.4446470  36.1116130
  64.5355820  43.5231550  35.5922470  61.1311480  36.8625610  45.6745870
  61.4992300  36.0420820  46.0025440  60.2709680  36.9227500  46.0901520
  64.4973510  35.8182550  36.4833430  63.8686670  35.9228220  35.7691660
  64.0025430  36.0379330  37.2727310  58.9431650  47.5388140  33.9167410
  59.0443630  47.3352130  32.9869390  58.0433390  47.2846420  34.1215190
  56.4657540  38.0968500  37.8991310  55.7573690  38.5654840  38.3404920
  56.7502020  37.4390510  38.5336500  60.4972970  34.8219160  39.3387100
  60.3740750  34.8405290  38.3896610  61.4457530  34.8698100  39.4585500
  54.6692560  36.4053580  35.2742020  55.5183090  36.8423730  35.2082210
  54.3023830  36.7173840  36.1014080  65.2980330  35.7333160  46.7412230
  64.7953930  36.4738560  47.0806040  66.1136990  36.1217160  46.4249020
  56.1747760  49.4136710  33.3570550  56.9676370  49.7025540  32.9052340
  55.6552110  48.9828880  32.6783030  65.2277930  48.6406840  34.7807290
  64.9419440  48.2271980  33.9661470  65.0297480  49.5694550  34.6607810
  56.6925160  44.6340120  33.2212900  56.5875800  44.0192470  33.9474280
  56.5249380  44.1106010  32.4375910  59.9327890  43.6960150  33.8254890
  59.3837990  44.1429450  34.4697630  60.5547150  43.1909400  34.3492560
  63.9862830  45.0502250  49.7577150  64.7272300  45.3878010  49.2544610
  63.2235510  45.2194310  49.2046920  58.1130650  41.6788680  32.9697290
  58.6336310  40.9637700  32.6038440  58.7599050  42.3174550  33.2697800
  63.1330660  40.4413240  50.2971510  63.7151430  39.6865560  50.2091990
  63.3092430  40.9720680  49.5202990  54.4961910  38.7284300  32.6678350
  54.2950970  37.8651660  33.0291690  54.3253960  38.6417660  31.7299950
  61.3449820  36.9440900  49.1374970  60.6565340  36.2822440  49.0724960
  62.0655840  36.4979170  49.5823430  61.9750220  33.5392530  35.1965230
  62.2552510  32.6960430  35.5524650  61.2015950  33.7715640  35.7103980
  53.2944710  35.8284920  32.6556230  53.5970610  35.8352350  31.7475380
  54.0339300  35.4782780  33.1523890  56.5129640  34.7719540  33.6412430
  56.1651640  34.0943530  33.0614880  56.7142410  34.3109050  34.4555820
  58.6778680  49.7600290  35.2599030  59.5729470  50.0985260  35.2817790
  58.7096310  49.0379700  34.6323310  52.3174840  45.1327340  33.4886030
  52.7549710  45.6757010  34.1443610  52.8022570  44.3074290  33.4982370
  65.6573030  48.2903960  47.9665230  65.0575020  48.3496520  47.2229150
  65.7866930  47.3508940  48.0962080  66.8974480  46.0321780  33.3034940
  66.0667440  46.0998430  33.7742170  67.0746310  46.9225900  33.0001800
  66.3530940  42.7769260  35.8069140  67.1149850  43.3465910  35.9128830
  66.3685310  42.2096460  36.5777450  67.3590910  43.6319360  40.6511070
  67.7299740  42.8486680  40.2447040  67.9992840  44.3208460  40.4728370
  64.3424670  45.0155940  46.0641390  63.5284510  45.4453100  46.3267180
  64.7498870  45.6274350  45.4510440  66.4050110  43.0703630  32.9641660
  66.6798950  43.9782510  32.8360880  66.2160850  43.0066160  33.9003650
  62.8025720  36.0948480  34.2595290  63.2210600  35.9079460  33.4191950
  62.4961780  35.2427530  34.5698220  66.3015450  41.0072620  37.9571090
  65.9259050  40.2400550  37.5252380  65.5718570  41.3895320  38.4446020
  65.6915070  40.1544140  47.5910610  65.4601160  39.9256890  46.6908560
  65.9519620  41.0743690  47.5455500  64.1303140  35.3800570  50.3690310
  65.0073320  35.3883970  50.7524310  64.1423980  34.6431410  49.7582660
  65.5766410  39.2330110  41.2578330  66.1003890  38.7392760  40.6268500
  66.1625830  39.3680470  42.0025900  65.7556130  39.3169980  44.7797880
  64.8058840  39.2833520  44.8942870  65.9369140  40.2270090  44.5447650
  51.6100570  37.5671660  33.8896510  52.3192270  37.1454880  33.4043790
  50.8940510  37.6346890  33.2579860  51.2574730  33.6210990  32.9299160
  51.9802860  34.1619930  33.2480380  51.5299250  33.3474410  32.0540700
  65.0666380  38.4903460  37.1970740  65.5625500  38.2574330  37.9819620
  64.8682450  37.6515300  36.7808380  66.4953540  37.1264410  39.7308420
  66.3852820  36.9720450  40.6690690  67.2561130  36.5985350  39.4883830
  64.8419260  33.0658540  46.1891420  65.4791480  33.6792680  46.5550610
  64.9894150  33.1019200  45.2440650  67.3843810  34.9572330  32.9714560
  68.3093120  34.8253510  32.7632850  67.3619600  35.0365150  33.9251010
  67.4582300  35.7282990  35.5971270  66.6633800  35.6628110  36.1264180
  67.6625580  36.6633630  35.5856620  67.2673480  49.7746420  46.1420650
  66.7731760  50.1715290  45.4247780  66.6586770  49.1495630  46.5357930
  61.5906340  32.4386930  45.0628100  60.7166180  32.7722040  44.8601030
  61.4817090  31.9660110  45.8879970  62.4978320  34.6457800  46.4469820
  62.1691680  33.8309560  46.0671550  63.4460620  34.6027610  46.3235510
  59.3381160  33.3556770  44.0021010  58.5552950  33.8302270  44.2817770
  59.0444090  32.4511600  43.8934190  63.8902230  34.0579870  42.0470100
  64.3310320  34.0024970  41.1991700  63.6209820  34.9737880  42.1180280
  65.7540800  33.6895110  40.0578920  65.6929200  32.7456330  39.9109940
  66.5332830  33.7975200  40.6032380  50.6821570  33.6604250  36.5234730
  51.4400930  33.7733130  35.9498760  50.2198740  34.4973450  36.4778160
  57.2235380  35.7743520  39.5137040  56.4109890  35.4000410  39.1732920
  57.7277020  35.0188600  39.8158230  61.7260360  32.4385970  40.7520110
  62.3289730  33.0106180  41.2268630  60.9853350  33.0025410  40.5294010
  64.8694960  32.8407530  36.0260390  65.0645590  33.7390980  36.2927820
  64.0824830  32.6094610  36.5193340  53.0546720  34.1868300  35.0636700
  53.5839480  33.3998100  34.9344650  53.6875040  34.8659490  35.2972230
  55.2484560  33.9243440  38.1182090  54.6187300  33.2230750  38.2852220
  54.7089700  34.6847570  37.9015250  64.7554070  49.7652530  50.6133740
  65.5479390  49.2701760  50.4059700  65.0487220  50.4442670  51.2209350
  60.8813730  40.6373470  21.4949790  60.8007780  39.7228080  21.2241500
  60.4678150  41.1340540  20.7889500  59.0131770  42.4152490  23.3759060
  58.2373870  41.9352930  23.6657630  59.6644700  41.7358140  23.2015220
  53.0297600  42.7272300  24.2534820  52.1982480  42.4721010  24.6531330
  53.6378580  42.7983070  24.9892740  63.0339200  46.8212680  22.1558190
  62.5720730  46.0499920  22.4845360  63.8464750  46.8478750  22.6610640
  53.0098860  46.7612390  24.4492840  53.3126900  45.8710130  24.2703060
  53.7542450  47.3182610  24.2215090  51.4389550  37.6874190  18.0377210
  50.5506250  38.0290160  17.9357090  51.7230740  37.4874510  17.1458040
  59.2602510  49.1070690  21.7762180  58.6413950  49.5628190  21.2056620
  60.1154290  49.2622150  21.3751880  58.4540760  45.0909680  23.3829220
  58.3849040  44.1499620  23.2218350  59.2160620  45.1811090  23.9551790
  50.6447430  35.6964200  25.7085840  50.4650270  34.7989950  25.9888600
  50.2427510  36.2436070  26.3832790  59.4845930  37.8980060  23.6098150
  59.8610750  37.0251940  23.4971820  59.3865440  38.2338760  22.7188590
  53.6150940  36.2705690  19.0715590  53.7217690  37.1709420  19.3784350
  52.7043300  36.2223660  18.7810240  63.2670050  35.3930500  20.5426490
  64.0879670  34.9027070  20.5851970  63.3004130  35.9828160  21.2958330
  51.2634100  38.1924700  24.3168180  51.9444210  38.4563070  24.9355580
  50.9482150  37.3525570  24.6506190  55.4558670  39.2392060  23.4040770
  55.9636890  39.7373030  24.0445790  55.9871910  38.4627260  23.2280130
  67.5569600  37.4097250  27.1070120  66.8521770  37.7978960  26.5885230
  67.8227520  38.1047540  27.7091050  53.7394770  33.8790620  27.6704190
  53.7413210  34.3963010  26.8650090  52.9099080  33.4020800  27.6474120
  60.1265860  43.9909930  19.1694090  59.5083130  44.4559380  18.6056810
  60.6389110  44.6837410  19.5863600  54.9897620  43.5185800  25.8477690
  54.6567000  44.1454720  26.4898760  55.1664300  44.0447680  25.0679360
  63.5031530  37.3330880  23.3154030  62.7987100  37.6215770  23.8957140
  63.8643690  38.1430990  22.9553590  53.4210100  35.5900580  25.6774640
  53.7626910  36.4342630  25.3828510  52.4825910  35.7384320  25.7939980
  54.2016720  45.4866600  27.6626870  54.8190720  46.1617680  27.3811320
  53.3409840  45.8954580  27.5714370  49.4949060  44.6766460  16.5433720
  49.1177040  45.1653560  15.8118620  49.7522130  45.3491740  17.1740250
  65.1194310  46.9506010  25.5781510  64.4357830  47.6205120  25.5698180
  65.6588600  47.1486660  24.8126370  66.5718450  36.7785670  23.7063240
  65.6243360  36.8124650  23.8378670  66.8968440  37.5924620  24.0912600
  57.1037990  33.0782850  22.0019230  57.4112970  32.5229740  21.2854730
  56.1738690  33.2127310  21.8192220  62.6553050  48.7950140  24.2926690
  62.6680210  48.3912430  23.4248950  62.1028270  49.5697430  24.1888120
  63.9498470  45.5166360  19.3816860  63.8394800  44.5740690  19.5066280
  63.9466720  45.8782000  20.2679620  62.0538490  43.6979980  25.6209300
  62.4707280  43.4840090  24.7862760  62.7778310  43.9552770  26.1917920
  59.4918750  41.1431680  18.7379350  58.5648030  41.0769060  18.9667820
  59.6443570  42.0811810  18.6234590  59.4787830  37.4148680  15.7346510
  58.5391500  37.5762640  15.8198970  59.7971090  38.1334360  15.1882500
  66.0000590  42.0967200  25.7125540  65.1719220  42.1660290  25.2375670
  66.5951070  42.6821510  25.2441370  63.5216040  42.7051980  19.2414600
  62.9028460  42.3671530  18.5940900  63.5040490  42.0611740  19.9493790
  62.9642600  38.8836520  26.6580410  62.5513780  39.7090230  26.9120400
  62.2318550  38.2981560  26.4656770  55.0975390  41.6696420  21.5199080
  54.6932390  40.9573670  21.0244980  55.1838510  41.3249660  22.4087120
  55.5657090  45.3563980  23.6838290  55.2685380  44.7509450  23.0046070
  56.5156910  45.3941290  23.5727650  53.8104010  38.4439630  25.2998120
  54.3618600  38.5534970  24.5251370  54.3247520  38.8177230  26.0153350
  63.6542700  48.9295850  27.3461390  63.1773260  49.7368040  27.1534000
  62.9704490  48.2774180  27.4987600  54.6575520  45.0945670  30.3346090
  53.7604050  45.3185640  30.5819490  54.6828390  45.2180610  29.3857490
  61.6980740  41.9438790  16.2487350  62.1374020  41.1061220  16.1025170
  62.4109160  42.5768190  16.3351490  53.4846740  41.9658990  28.9103460
  53.3454510  42.8381790  29.2790860  52.6028100  41.6231800  28.7651400
  59.8076120  46.8834860  20.2168590  60.2472030  47.6259190  19.8023980
  59.7463010  47.1261430  21.1407550  55.2827090  47.9080690  31.1188610
  55.2542520  48.3123640  30.2517040  55.1192060  46.9791050  30.9560210
  65.2797880  33.1981600  14.5628390  64.9670540  33.2908430  15.4627460
  66.0410350  33.7762630  14.5125820  67.2341910  48.6907790  32.4152780
  67.7101630  49.1690680  33.0941860  67.8549070  48.6225280  31.6898280
  49.4365390  43.7356540  24.8274370  49.5145810  43.8705310  23.8830090
  50.0507070  43.0272430  25.0202490  66.6375160  45.8820640  29.5752790
  66.7638220  45.6432520  28.6569970  66.6796540  45.0505180  30.0474870
  60.4991900  49.5848640  28.1447600  61.0136570  49.4956650  28.9470030
  59.6560980  49.9308340  28.4375510  62.4746300  49.8703980  17.5731600
  62.3147440  49.5806920  18.4713430  62.3093010  49.0944110  17.0376830
  54.9534680  49.6502510  19.3503220  54.7777160  48.7338050  19.1371020
  54.0990420  50.0089800  19.5901020  62.1772430  47.3791540  16.1329600
  61.4837590  47.3768830  15.4731880  62.9195290  46.9550860  15.7023770
  61.7422360  49.0054250  20.2078090  62.1979310  48.2243630  20.5216710
  62.0814880  49.7161070  20.7519270  66.4899170  37.9353100  30.5402530
  65.8743440  38.4432770  30.0117990  66.1695590  37.0351430  30.4828470
  49.4924910  44.7770710  27.3668830  49.6555950  44.3076070  26.5488200
  49.9577360  44.2694270  28.0317670  54.2643680  33.9076470  22.4029400
  53.8211830  34.6886010  22.0713920  54.8228670  34.2306360  23.1100340
  58.5513490  36.7744990  28.0064720  58.0892860  36.9828010  28.8184660
  58.1491600  35.9604340  27.7035390  63.5518000  37.9953940  29.1361380
  62.7011590  37.6959690  29.4570450  63.3919790  38.2395950  28.2245200
  60.6467710  39.4955690  31.2360170  60.9721120  38.6619440  30.8962400
  61.4348040  40.0184210  31.3838500  57.3802500  33.5287170  17.2835230
  56.7556680  33.5247040  18.0088540  57.2932620  32.6618130  16.8871200
  56.3019580  34.4523800  24.2619000  56.5991910  35.3586630  24.1811020
  56.8505140  33.9642580  23.6478570  54.0557900  39.0310040  20.1310650
  53.8298820  38.8147210  21.0357270  53.2750430  39.4638500  19.7856620
  61.2855660  39.0373410  18.7301300  60.6864550  39.7609210  18.5464920
  61.8335270  38.9750190  17.9477750  56.4957110  39.9295620  30.7970920
  56.4000710  38.9890350  30.6471320  57.3389090  40.1510690  30.4018990
  59.8920530  37.6736950  20.7604580  60.2850100  37.9909150  19.9473270
  60.2537380  36.7948830  20.8749100  51.6267650  36.3409290  28.9504700
  51.2331040  37.1884500  29.1577480  50.9386050  35.7035660  29.1413340
  58.2012700  36.4244260  32.0201440  57.5111020  36.2316460  32.6547530
  58.9445000  36.7078900  32.5525740  49.1154930  38.2057870  14.1937500
  49.0329600  39.1488630  14.3352490  48.7637990  38.0632780  13.3149850
  60.4775670  40.2642700  24.8555360  59.7456790  40.7729510  25.2045460
  60.0800010  39.4472680  24.5544140  56.9153060  36.9396900  23.2607850
  56.9189120  36.4986850  22.4112390  57.8104180  37.2614230  23.3679670
  52.7655440  36.8223390  22.2202060  52.4255490  37.2998620  22.9769110
  52.0032760  36.3688510  21.8603160  56.9773210  37.9408980  16.2514610
  57.0986030  37.8995460  17.2000430  56.5921720  38.8033130  16.0961340
  60.9401580  35.7176380  24.2678300  60.9574320  36.1685030  25.1120150
  60.6917160  34.8182020  24.4811740  55.9894710  40.2510120  15.6497910
  55.4211610  39.8028370  15.0233820  56.6983710  40.6102900  15.1163060
  64.3672330  33.1308560  30.1064680  64.6918100  32.3998220  30.6322660
  64.4028840  32.8122200  29.2045670  51.0663890  44.1522140  29.5264640
  50.6818680  43.5115810  30.1247600  51.3776080  44.8558260  30.0959370
  57.2161030  40.9998680  25.0073260  57.5831160  40.5257250  25.7534600
  57.0266090  41.8740250  25.3481600  50.0801520  35.7442370  21.1366730
  49.7948440  35.3798040  21.9745350  50.0180380  35.0122830  20.5229870
  55.0060400  40.0407320  27.3257470  54.7017470  40.9199300  27.5507830
  55.9606860  40.1007110  27.3614910  53.5342190  44.2468310  17.9224320
  52.7604450  43.7065930  17.7623040  54.2636820  43.7274920  17.5842080
  64.2930170  43.2433670  23.7150710  65.0129290  43.7388960  23.3246820
  64.0911990  42.5651560  23.0704580  59.7540110  34.6371630  17.8580100
  58.9404720  34.1384800  17.7825410  59.5602060  35.4769880  17.4416450
  59.6748970  43.3142730  29.6019710  59.6086280  42.3938400  29.3477300
  59.0454110  43.4118170  30.3164350  62.4688500  39.0091280  16.1542260
  63.3568120  39.3208510  15.9793600  62.4393590  38.1363530  15.7622840
  53.5779590  43.9148690  21.5603130  54.0958260  43.1116950  21.5060020
  53.1263610  43.8527830  22.4019960  58.4649090  45.1814970  16.8330430
  58.8064790  45.9257200  16.3373750  57.6361800  45.4946090  17.1955260
  51.0624130  40.8810060  28.4728830  50.7039070  41.5463910  29.0602170
  50.7678690  40.0493610  28.8441450  54.2637250  41.3394300  31.3568380
  53.9637390  41.4851480  30.4596200  55.0348490  40.7799590  31.2641770
  59.6065700  46.1363300  29.3523510  59.6210240  45.2044260  29.1342420
  58.8990800  46.2223060  29.9913280  64.7402770  40.3203120  15.6222120
  64.6566490  40.7517340  14.7718560  65.4596960  40.7801470  16.0548940
  65.8176910  42.7770640  28.6992090  65.0925100  43.3699420  28.5021480
  66.3452370  42.7694180  27.9005460  65.7690020  47.1745380  18.3504250
  65.1266180  46.5201000  18.6247970  65.3820680  47.5800470  17.5744920
  61.3476500  44.5030810  22.1975940  61.7000320  43.9058940  21.5377310
  60.4638830  44.1775040  22.3684190  57.4339780  45.2628500  19.6046350
  58.1210910  45.8097710  19.9853940  56.6472200  45.8069230  19.6395960
  49.5732180  40.8801320  15.0963430  50.4427030  41.1626120  15.3799350
  49.0822500  41.6937190  14.9812240  56.7366990  42.2674530  19.2171710
  57.1929770  43.0779780  19.4431900  56.3855200  41.9497670  20.0490200
  59.0399600  47.7780870  26.4464010  59.6841820  47.9840250  27.1237430
  59.4029040  47.0169270  25.9934860  52.6378770  32.6112180  19.6894230
  52.5093400  32.6030080  20.6379150  51.8140790  32.9495270  19.3385240
  60.3131680  45.7813220  25.1641460  60.9553910  45.0806380  25.2773630
  60.8381030  46.5611660  24.9838350  64.1587400  46.0661840  14.8880600
  63.9324980  45.3492280  15.4805240  63.7683600  45.8174280  14.0502350
  62.0869300  46.5808120  28.3677520  62.4225540  47.1674810  29.0455440
  61.1669640  46.4500830  28.5975310  49.9403430  50.0928700  15.6625060
  50.3001070  50.6918040  15.0082330  49.7995770  50.6388590  16.4360090
  49.6372700  34.3703300  29.1500930  48.9231220  34.5700220  29.7553540
  50.0567740  33.5942870  29.5215730  63.7403650  43.9833780  16.5494760
  63.4525350  44.4446470  17.3372640  64.5355820  43.5231550  16.8178980
  49.9245290  48.3583560  30.1367460  50.0336410  47.4178300  29.9962850
  49.2725850  48.6238310  29.4881190  57.9157880  46.6299450  31.5365580
  57.5954750  45.9108690  32.0811270  57.2416240  47.3054520  31.6101640
  55.9572050  47.4759900  16.4798730  55.9482150  48.2089590  15.8643240
  55.0370410  47.2291480  16.5725690  51.5578690  42.6974790  17.2245490
  50.9506640  43.4373690  17.2340790  52.0328040  42.7874150  16.3983690
  61.1311480  36.8625610  26.9002380  61.4992300  36.0420820  27.2281950
  60.2709680  36.9227500  27.3158030  64.4973510  35.8182550  17.7089940
  63.8686670  35.9228220  16.9948170  64.0025430  36.0379330  18.4983820
  58.9431650  47.5388140  15.1423920  59.0443630  47.3352130  14.2125900
  58.0433390  47.2846420  15.3471700  56.4657540  38.0968500  19.1247820
  55.7573690  38.5654840  19.5661430  56.7502020  37.4390510  19.7593010
  58.0913470  39.5165200  27.1240350  58.5898720  39.9911020  27.7892200
  58.2336420  38.5928720  27.3310380  60.4972970  34.8219160  20.5643610
  60.3740750  34.8405290  19.6153120  61.4457530  34.8698100  20.6842010
  57.5849760  50.0574460  19.8371590  57.8391260  50.0195850  18.9150960
  56.6362240  49.9307790  19.8299840  54.6692560  36.4053580  16.4998530
  55.5183090  36.8423730  16.4338720  54.3023830  36.7173840  17.3270590
  65.2980330  35.7333160  27.9668740  64.7953930  36.4738560  28.3062550
  66.1136990  36.1217160  27.6505530  63.5902340  40.9766340  21.4130100
  62.6492480  40.9916570  21.5877790  63.9046410  40.1902300  21.8590400
  53.5683980  42.6585940  14.9734060  54.3347250  42.5467300  15.5359490
  53.6458670  41.9623910  14.3210830  52.2630740  40.0911010  15.6566950
  52.3434330  39.1438520  15.7684350  53.1550490  40.4217890  15.7627610
  65.5927920  48.1475190  23.0884360  65.7175340  48.9706360  23.5608170
  66.4593480  47.9365920  22.7408510  53.0645450  50.2406400  22.7601490
  53.8007930  49.6921860  23.0310060  53.4486370  51.1062410  22.6207480
  52.0703730  49.4252470  31.9487070  52.8716460  49.7464520  32.3622470
  51.5555550  49.0648050  32.6706980  56.1747760  49.4136710  14.5827060
  56.9676370  49.7025540  14.1308850  55.6552110  48.9828880  13.9039540
  60.9068360  45.5332340  31.8962480  60.3006520  45.5563940  31.1558230
  60.6022470  44.8015380  32.4329730  62.3368730  49.2612630  30.5071890
  63.2890480  49.1770650  30.4572130  62.1896950  49.9254340  31.1805680
  65.2277930  48.6406840  16.0063800  64.9419440  48.2271980  15.1917980
  65.0297480  49.5694550  15.8864320  49.7901540  41.9125930  30.8923120
  50.2940560  41.3333210  31.4639350  49.0508960  42.1966160  31.4299490
  56.6925160  44.6340120  14.4469410  56.5875800  44.0192470  15.1730790
  56.5249380  44.1106010  13.6632420  56.8439480  43.3196920  30.4258640
  56.0785150  43.8881920  30.3413310  57.0255440  43.0273130  29.5326870
  59.9327890  43.6960150  15.0511400  59.3837990  44.1429450  15.6954140
  60.5547150  43.1909400  15.5749070  63.9862830  45.0502250  30.9833660
  64.7272300  45.3878010  30.4801120  63.2235510  45.2194310  30.4303430
  51.8224620  40.0555520  31.7873190  51.8629960  39.7569390  32.6958420
  52.6770120  40.4563130  31.6280710  55.6003010  42.6551070  16.9476700
  56.0219430  42.4890940  17.7908090  55.7253850  41.8451300  16.4531840
  53.7630430  38.6347620  29.7547680  53.2326890  38.1438570  29.1271020
  54.4318500  39.0631820  29.2205610  58.1130650  41.6788680  14.1953800
  58.6336310  40.9637700  13.8294950  58.7599050  42.3174550  14.4954310
  62.6608490  43.1017080  29.5188870  63.0749510  43.2562160  30.3679290
  61.7259490  43.2272300  29.6814650  63.1330660  40.4413240  31.5228020
  63.7151430  39.6865560  31.4348500  63.3092430  40.9720680  30.7459500
  54.2502730  35.6009990  29.8344970  54.1559600  34.9830740  29.1095840
  53.6700120  36.3276280  29.6074880  57.0164170  34.1583230  26.8672360
  56.5681470  34.1807490  26.0217910  56.3829370  33.7602250  27.4642660
  57.4223720  43.0537560  27.4884800  57.8411830  43.8970290  27.3161040
  56.5032350  43.1909600  27.2591580  59.7587620  40.7853740  28.8722640
  59.8783830  40.1894880  29.6117480  60.6181620  40.8223430  28.4523940
  62.0975520  41.3390930  27.4485150  61.5710740  41.8633550  26.8450290
  62.4406860  41.9718320  28.0794880  54.4961910  38.7284300  13.8934860
  54.2950970  37.8651660  14.2548200  54.3253960  38.6417660  12.9556460
  55.2731140  49.3590570  28.6042530  54.7352230  50.0836630  28.2851230
  55.5265100  48.8820910  27.8139870  56.5256390  37.3275090  30.1298460
  57.1156080  37.0190940  30.8176280  55.7076630  36.8554840  30.2858360
  61.3449820  36.9440900  30.3631480  60.6565340  36.2822440  30.2981470
  62.0655840  36.4979170  30.8079940  61.9750220  33.5392530  16.4221740
  62.2552510  32.6960430  16.7781160  61.2015950  33.7715640  16.9360490
  53.2944710  35.8284920  13.8812740  53.5970610  35.8352350  12.9731890
  54.0339300  35.4782780  14.3780400  58.1293350  50.5941780  28.8629180
  58.0552050  51.4976920  29.1701550  57.2272190  50.2753680  28.8351250
  56.5129640  34.7719540  14.8668940  56.1651640  34.0943530  14.2871390
  56.7142410  34.3109050  15.6812330  58.6778680  49.7600290  16.4855540
  59.5729470  50.0985260  16.5074300  58.7096310  49.0379700  15.8579820
  52.3174840  45.1327340  14.7142540  52.7549710  45.6757010  15.3700120
  52.8022570  44.3074290  14.7238880  49.5320640  47.9216370  22.1662800
  49.8623650  47.0537430  21.9341440  49.9611640  48.1274890  22.9967760
  54.1282560  46.2525380  19.8264770  53.8278100  46.1290350  20.7268680
  54.0220050  45.3933970  19.4180500  50.0210850  48.7886960  24.9044430
  49.5841840  48.9687760  25.7368580  50.5888530  49.5461580  24.7626150
  65.6573030  48.2903960  29.1921740  65.0575020  48.3496520  28.4485660
  65.7866930  47.3508940  29.3218590  66.8974480  46.0321780  14.5291450
  66.0667440  46.0998430  14.9998680  67.0746310  46.9225900  14.2258310
  66.3530940  42.7769260  17.0325650  67.1149850  43.3465910  17.1385340
  66.3685310  42.2096460  17.8033960  67.3590910  43.6319360  21.8767580
  67.7299740  42.8486680  21.4703550  67.9992840  44.3208460  21.6984880
  64.3424670  45.0155940  27.2897900  63.5284510  45.4453100  27.5523690
  64.7498870  45.6274350  26.6766950  66.4050110  43.0703630  14.1898170
  66.6798950  43.9782510  14.0617390  66.2160850  43.0066160  15.1260160
  62.8025720  36.0948480  15.4851800  63.2210600  35.9079460  14.6448460
  62.4961780  35.2427530  15.7954730  66.3015450  41.0072620  19.1827600
  65.9259050  40.2400550  18.7508890  65.5718570  41.3895320  19.6702530
  50.8911210  41.6859760  25.8036650  51.2584250  41.5987160  26.6832670
  50.3222030  40.9226310  25.7043510  65.6915070  40.1544140  28.8167120
  65.4601160  39.9256890  27.9165070  65.9519620  41.0743690  28.7712010
  50.4427210  38.5968850  29.7095070  49.5483260  38.5635610  30.0488780
  50.9824760  38.7955640  30.4746320  64.1303140  35.3800570  31.5946820
  65.0073320  35.3883970  31.9780820  64.1423980  34.6431410  30.9839170
  49.0673360  38.5106120  17.2058640  48.1637440  38.7736320  17.0310300
  49.5513980  38.7817290  16.4258600  65.5766410  39.2330110  22.4834840
  66.1003890  38.7392760  21.8525010  66.1625830  39.3680470  23.2282410
  65.7556130  39.3169980  26.0054390  64.8058840  39.2833520  26.1199380
  65.9369140  40.2270090  25.7704160  51.6100570  37.5671660  15.1153020
  52.3192270  37.1454880  14.6300300  50.8940510  37.6346890  14.4836370
  51.2574730  33.6210990  14.1555670  51.9802860  34.1619930  14.4736890
  51.5299250  33.3474410  13.2797210  65.0666380  38.4903460  18.4227250
  65.5625500  38.2574330  19.2076130  64.8682450  37.6515300  18.0064890
  50.9466920  32.8717180  24.0578290  51.5943110  32.3214560  23.6173450
  51.3668760  33.1260330  24.8794100  66.4953540  37.1264410  20.9564930
  66.3852820  36.9720450  21.8947200  67.2561130  36.5985350  20.7140340
  64.8419260  33.0658540  27.4147930  65.4791480  33.6792680  27.7807120
  64.9894150  33.1019200  26.4697160  67.3843810  34.9572330  14.1971070
  68.3093120  34.8253510  13.9889360  67.3619600  35.0365150  15.1507520
  67.4582300  35.7282990  16.8227780  66.6633800  35.6628110  17.3520690
  67.6625580  36.6633630  16.8113130  64.4000720  49.7674540  20.8166170
  64.9959790  49.4459110  20.1400590  64.6578870  49.2946360  21.6079440
  50.6998920  33.0272850  26.8003610  50.3513740  33.4836670  27.5661790
  50.3686620  32.1329980  26.8826040  52.3063290  46.1992450  30.9656800
  52.2632920  45.8285360  31.8471260  52.4374300  47.1370020  31.1058620
  56.0069320  47.7552040  26.5666520  55.7660680  48.0226600  25.6797040
  56.9471960  47.9257770  26.6217380  58.2123740  34.2184730  30.3223030
  58.1512630  34.8106560  31.0718440  59.1524120  34.1110690  30.1773290
  60.8498300  33.8754790  29.9615320  61.4638710  34.1934080  29.2996400
  61.3947860  33.3903380  30.5811180  67.2673480  49.7746420  27.3677160
  66.7731760  50.1715290  26.6504290  66.6586770  49.1495630  27.7614440
  51.3719560  32.5549050  30.0754380  51.9202550  32.3737100  29.3120490
  51.4374870  31.7643160  30.6110690  52.1451320  49.1454700  28.0854580
  51.5511640  49.0139400  28.8244620  52.1375160  48.3092840  27.6196680
  61.5906340  32.4386930  26.2884610  60.7166180  32.7722040  26.0857540
  61.4817090  31.9660110  27.1136480  62.4978320  34.6457800  27.6726330
  62.1691680  33.8309560  27.2928060  63.4460620  34.6027610  27.5492020
  64.9512930  50.4169840  24.6463900  64.4915900  51.1685650  24.2721920
  64.3225390  49.6976310  24.5878700  51.7763550  46.5113080  27.0362620
  51.0497610  45.8918370  26.9688570  51.8372700  46.9053690  26.1660700
  55.3808650  48.7258080  23.8212030  55.8973670  48.1145440  23.2960290
  56.0306030  49.2286860  24.3123040  58.1204150  49.6166570  24.6481010
  58.4081960  49.3620870  23.7714020  58.6327370  49.0643930  25.2386580
  59.3381160  33.3556770  25.2277520  58.5552950  33.8302270  25.5074280
  59.0444090  32.4511600  25.1190700  63.8902230  34.0579870  23.2726610
  64.3310320  34.0024970  22.4248210  63.6209820  34.9737880  23.3436790
  65.7540800  33.6895110  21.2835430  65.6929200  32.7456330  21.1366450
  66.5332830  33.7975200  21.8288890  50.0593550  49.8287470  20.2459380
  49.8915590  49.1958150  20.9441270  49.1928060  50.0346870  19.8953570
  50.6821570  33.6604250  17.7491240  51.4400930  33.7733130  17.1755270
  50.2198740  34.4973450  17.7034670  57.2235380  35.7743520  20.7393550
  56.4109890  35.4000410  20.3989430  57.7277020  35.0188600  21.0414740
  61.7260360  32.4385970  21.9776620  62.3289730  33.0106180  22.4525140
  60.9853350  33.0025410  21.7550520  64.8694960  32.8407530  17.2516900
  65.0645590  33.7390980  17.5184330  64.0824830  32.6094610  17.7449850
  51.6656250  48.5220700  17.6909520  51.1403870  48.9028730  16.9871480
  51.5900830  49.1471470  18.4119230  53.0546720  34.1868300  16.2893210
  53.5839480  33.3998100  16.1601160  53.6875040  34.8659490  16.5228740
  55.2484560  33.9243440  19.3438600  54.6187300  33.2230750  19.5108730
  54.7089700  34.6847570  19.1271760  58.1876510  50.5382670  32.0149210
  59.1143820  50.3026940  32.0585170  58.1726940  51.3654670  31.5335240
  66.4221570  50.0808240  19.0123460  66.5973760  49.3945980  18.3684380
  65.7243140  50.6055290  18.6200130  55.3740120  33.2027420  31.7791090
  55.0924390  33.7061020  31.0151910  55.7559820  32.4049170  31.4133220
  54.2649220  50.4703080  16.5658770  54.9968040  50.1862360  16.0182660
  54.5242890  50.2316360  17.4558150  53.4264010  46.5867810  16.5705100
  52.7972890  47.0552910  17.1190930  53.5411840  45.7417030  17.0051290
  61.9755580  32.6181000  32.3571560  61.8621030  32.9375610  33.2523080
  62.7925320  33.0193510  32.0608840  64.7554070  49.7652530  31.8390250
  65.5479390  49.2701760  31.6316210  65.0487220  50.4442670  32.4465860
  60.8813730  40.6373470   2.7206300  60.8007780  39.7228080   2.4498010
  60.4678150  41.1340540   2.0146010  59.0131770  42.4152490   4.6015570
  58.2373870  41.9352930   4.8914140  59.6644700  41.7358140   4.4271730
  53.0297600  42.7272300   5.4791330  52.1982480  42.4721010   5.8787840
  53.6378580  42.7983070   6.2149250  63.0339200  46.8212680   3.3814700
  62.5720730  46.0499920   3.7101870  63.8464750  46.8478750   3.8867150
  53.0098860  46.7612390   5.6749350  53.3126900  45.8710130   5.4959570
  53.7542450  47.3182610   5.4471600  49.4022560  40.2879840   5.1473420
  49.9738670  39.5202040   5.1477060  49.4024100  40.5868600   4.2380030
  59.2602510  49.1070690   3.0018690  58.6413950  49.5628190   2.4313130
  60.1154290  49.2622150   2.6008390  58.4540760  45.0909680   4.6085730
  58.3849040  44.1499620   4.4474860  59.2160620  45.1811090   5.1808300
  50.6447430  35.6964200   6.9342350  50.4650270  34.7989950   7.2145110
  50.2427510  36.2436070   7.6089300  59.4845930  37.8980060   4.8354660
  59.8610750  37.0251940   4.7228330  59.3865440  38.2338760   3.9445100
  63.2670050  35.3930500   1.7683000  64.0879670  34.9027070   1.8108480
  63.3004130  35.9828160   2.5214840  51.2634100  38.1924700   5.5424690
  51.9444210  38.4563070   6.1612090  50.9482150  37.3525570   5.8762700
  55.4558670  39.2392060   4.6297280  55.9636890  39.7373030   5.2702300
  55.9871910  38.4627260   4.4536640  67.5569600  37.4097250   8.3326630
  66.8521770  37.7978960   7.8141740  67.8227520  38.1047540   8.9347560
  53.7394770  33.8790620   8.8960700  53.7413210  34.3963010   8.0906600
  52.9099080  33.4020800   8.8730630  54.9897620  43.5185800   7.0734200
  54.6567000  44.1454720   7.7155270  55.1664300  44.0447680   6.2935870
  63.5031530  37.3330880   4.5410540  62.7987100  37.6215770   5.1213650
  63.8643690  38.1430990   4.1810100  53.4210100  35.5900580   6.9031150
  53.7626910  36.4342630   6.6085020  52.4825910  35.7384320   7.0196490
  54.2016720  45.4866600   8.8883380  54.8190720  46.1617680   8.6067830
  53.3409840  45.8954580   8.7970880  65.1194310  46.9506010   6.8038020
  64.4357830  47.6205120   6.7954690  65.6588600  47.1486660   6.0382880
  66.5718450  36.7785670   4.9319750  65.6243360  36.8124650   5.0635180
  66.8968440  37.5924620   5.3169110  57.1037990  33.0782850   3.2275740
  57.4112970  32.5229740   2.5111240  56.1738690  33.2127310   3.0448730
  62.6553050  48.7950140   5.5183200  62.6680210  48.3912430   4.6505460
  62.1028270  49.5697430   5.4144630  62.0538490  43.6979980   6.8465810
  62.4707280  43.4840090   6.0119270  62.7778310  43.9552770   7.4174430
  66.0000590  42.0967200   6.9382050  65.1719220  42.1660290   6.4632180
  66.5951070  42.6821510   6.4697880  62.9642600  38.8836520   7.8836920
  62.5513780  39.7090230   8.1376910  62.2318550  38.2981560   7.6913280
  55.0975390  41.6696420   2.7455590  54.6932390  40.9573670   2.2501490
  55.1838510  41.3249660   3.6343630  55.5657090  45.3563980   4.9094800
  55.2685380  44.7509450   4.2302580  56.5156910  45.3941290   4.7984160
  53.8104010  38.4439630   6.5254630  54.3618600  38.5534970   5.7507880
  54.3247520  38.8177230   7.2409860  63.6542700  48.9295850   8.5717900
  63.1773260  49.7368040   8.3790510  62.9704490  48.2774180   8.7244110
  54.6575520  45.0945670  11.5602600  53.7604050  45.3185640  11.8076000
  54.6828390  45.2180610  10.6114000  53.4846740  41.9658990  10.1359970
  53.3454510  42.8381790  10.5047370  52.6028100  41.6231800   9.9907910
  55.2827090  47.9080690  12.3445120  55.2542520  48.3123640  11.4773550
  55.1192060  46.9791050  12.1816720  67.2341910  48.6907790  13.6409290
  67.7101630  49.1690680  14.3198370  67.8549070  48.6225280  12.9154790
  49.4365390  43.7356540   6.0530880  49.5145810  43.8705310   5.1086600
  50.0507070  43.0272430   6.2459000  66.6375160  45.8820640  10.8009300
  66.7638220  45.6432520   9.8826480  66.6796540  45.0505180  11.2731380
  60.4991900  49.5848640   9.3704110  61.0136570  49.4956650  10.1726540
  59.6560980  49.9308340   9.6632020  66.4899170  37.9353100  11.7659040
  65.8743440  38.4432770  11.2374500  66.1695590  37.0351430  11.7084980
  49.4924910  44.7770710   8.5925340  49.6555950  44.3076070   7.7744710
  49.9577360  44.2694270   9.2574180  54.2643680  33.9076470   3.6285910
  53.8211830  34.6886010   3.2970430  54.8228670  34.2306360   4.3356850
  58.5513490  36.7744990   9.2321230  58.0892860  36.9828010  10.0441170
  58.1491600  35.9604340   8.9291900  63.5518000  37.9953940  10.3617890
  62.7011590  37.6959690  10.6826960  63.3919790  38.2395950   9.4501710
  60.6467710  39.4955690  12.4616680  60.9721120  38.6619440  12.1218910
  61.4348040  40.0184210  12.6095010  56.3019580  34.4523800   5.4875510
  56.5991910  35.3586630   5.4067530  56.8505140  33.9642580   4.8735080
  56.4957110  39.9295620  12.0227430  56.4000710  38.9890350  11.8727830
  57.3389090  40.1510690  11.6275500  51.6267650  36.3409290  10.1761210
  51.2331040  37.1884500  10.3833990  50.9386050  35.7035660  10.3669850
  58.2012700  36.4244260  13.2457950  57.5111020  36.2316460  13.8804040
  58.9445000  36.7078900  13.7782250  48.9284700  34.2637750   4.2091290
  48.6397750  34.8340610   4.9216270  49.6730460  33.7842200   4.5722520
  60.4775670  40.2642700   6.0811870  59.7456790  40.7729510   6.4301970
  60.0800010  39.4472680   5.7800650  56.9153060  36.9396900   4.4864360
  56.9189120  36.4986850   3.6368900  57.8104180  37.2614230   4.5936180
  52.7655440  36.8223390   3.4458570  52.4255490  37.2998620   4.2025620
  52.0032760  36.3688510   3.0859670  60.9401580  35.7176380   5.4934810
  60.9574320  36.1685030   6.3376660  60.6917160  34.8182020   5.7068250
  64.3672330  33.1308560  11.3321190  64.6918100  32.3998220  11.8579170
  64.4028840  32.8122200  10.4302180  51.0663890  44.1522140  10.7521150
  50.6818680  43.5115810  11.3504110  51.3776080  44.8558260  11.3215880
  57.2161030  40.9998680   6.2329770  57.5831160  40.5257250   6.9791110
  57.0266090  41.8740250   6.5738110  50.0801520  35.7442370   2.3623240
  49.7948440  35.3798040   3.2001860  50.0180380  35.0122830   1.7486380
  55.0060400  40.0407320   8.5513980  54.7017470  40.9199300   8.7764340
  55.9606860  40.1007110   8.5871420  64.2930170  43.2433670   4.9407220
  65.0129290  43.7388960   4.5503330  64.0911990  42.5651560   4.2961090
  59.6748970  43.3142730  10.8276220  59.6086280  42.3938400  10.5733810
  59.0454110  43.4118170  11.5420860  53.5779590  43.9148690   2.7859640
  54.0958260  43.1116950   2.7316530  53.1263610  43.8527830   3.6276470
  51.0624130  40.8810060   9.6985340  50.7039070  41.5463910  10.2858680
  50.7678690  40.0493610  10.0697960  54.2637250  41.3394300  12.5824890
  53.9637390  41.4851480  11.6852710  55.0348490  40.7799590  12.4898280
  59.6065700  46.1363300  10.5780020  59.6210240  45.2044260  10.3598930
  58.8990800  46.2223060  11.2169790  65.8176910  42.7770640   9.9248600
  65.0925100  43.3699420   9.7277990  66.3452370  42.7694180   9.1261970
  61.3476500  44.5030810   3.4232450  61.7000320  43.9058940   2.7633820
  60.4638830  44.1775040   3.5940700  59.0399600  47.7780870   7.6720520
  59.6841820  47.9840250   8.3493940  59.4029040  47.0169270   7.2191370
  60.3131680  45.7813220   6.3897970  60.9553910  45.0806380   6.5030140
  60.8381030  46.5611660   6.2094860  62.0869300  46.5808120   9.5934030
  62.4225540  47.1674810  10.2711950  61.1669640  46.4500830   9.8231820
  49.6372700  34.3703300  10.3757440  48.9231220  34.5700220  10.9810050
  50.0567740  33.5942870  10.7472240  49.9245290  48.3583560  11.3623970
  50.0336410  47.4178300  11.2219360  49.2725850  48.6238310  10.7137700
  57.9157880  46.6299450  12.7622090  57.5954750  45.9108690  13.3067780
  57.2416240  47.3054520  12.8358150  61.1311480  36.8625610   8.1258890
  61.4992300  36.0420820   8.4538460  60.2709680  36.9227500   8.5414540
  58.0913470  39.5165200   8.3496860  58.5898720  39.9911020   9.0148710
  58.2336420  38.5928720   8.5566890  65.2980330  35.7333160   9.1925250
  64.7953930  36.4738560   9.5319060  66.1136990  36.1217160   8.8762040
  63.5902340  40.9766340   2.6386610  62.6492480  40.9916570   2.8134300
  63.9046410  40.1902300   3.0846910  65.5927920  48.1475190   4.3140870
  65.7175340  48.9706360   4.7864680  66.4593480  47.9365920   3.9665020
  53.0645450  50.2406400   3.9858000  53.8007930  49.6921860   4.2566570
  53.4486370  51.1062410   3.8463990  52.0703730  49.4252470  13.1743580
  52.8716460  49.7464520  13.5878980  51.5555550  49.0648050  13.8963490
  60.9068360  45.5332340  13.1218990  60.3006520  45.5563940  12.3814740
  60.6022470  44.8015380  13.6586240  62.3368730  49.2612630  11.7328400
  63.2890480  49.1770650  11.6828640  62.1896950  49.9254340  12.4062190
  49.7901540  41.9125930  12.1179630  50.2940560  41.3333210  12.6895860
  49.0508960  42.1966160  12.6556000  56.8439480  43.3196920  11.6515150
  56.0785150  43.8881920  11.5669820  57.0255440  43.0273130  10.7583380
  63.9862830  45.0502250  12.2090170  64.7272300  45.3878010  11.7057630
  63.2235510  45.2194310  11.6559940  51.8224620  40.0555520  13.0129700
  51.8629960  39.7569390  13.9214930  52.6770120  40.4563130  12.8537220
  53.7630430  38.6347620  10.9804190  53.2326890  38.1438570  10.3527530
  54.4318500  39.0631820  10.4462120  62.6608490  43.1017080  10.7445380
  63.0749510  43.2562160  11.5935800  61.7259490  43.2272300  10.9071160
  63.1330660  40.4413240  12.7484530  63.7151430  39.6865560  12.6605010
  63.3092430  40.9720680  11.9716010  54.2502730  35.6009990  11.0601480
  54.1559600  34.9830740  10.3352350  53.6700120  36.3276280  10.8331390
  57.0164170  34.1583230   8.0928870  56.5681470  34.1807490   7.2474420
  56.3829370  33.7602250   8.6899170  57.4223720  43.0537560   8.7141310
  57.8411830  43.8970290   8.5417550  56.5032350  43.1909600   8.4848090
  59.7587620  40.7853740  10.0979150  59.8783830  40.1894880  10.8373990
  60.6181620  40.8223430   9.6780450  62.0975520  41.3390930   8.6741660
  61.5710740  41.8633550   8.0706800  62.4406860  41.9718320   9.3051390
  55.2731140  49.3590570   9.8299040  54.7352230  50.0836630   9.5107740
  55.5265100  48.8820910   9.0396380  56.5256390  37.3275090  11.3554970
  57.1156080  37.0190940  12.0432790  55.7076630  36.8554840  11.5114870
  61.3449820  36.9440900  11.5887990  60.6565340  36.2822440  11.5237980
  62.0655840  36.4979170  12.0336450  58.1293350  50.5941780  10.0885690
  58.0552050  51.4976920  10.3958060  57.2272190  50.2753680  10.0607760
  49.5320640  47.9216370   3.3919310  49.8623650  47.0537430   3.1597950
  49.9611640  48.1274890   4.2224270  50.0210850  48.7886960   6.1300940
  49.5841840  48.9687760   6.9625090  50.5888530  49.5461580   5.9882660
  65.6573030  48.2903960  10.4178250  65.0575020  48.3496520   9.6742170
  65.7866930  47.3508940  10.5475100  49.8535280  41.3007190   2.4889820
  49.1984120  41.0318830   1.8449520  50.6913230  41.1911670   2.0391800
  67.3590910  43.6319360   3.1024090  67.7299740  42.8486680   2.6960060
  67.9992840  44.3208460   2.9241390  64.3424670  45.0155940   8.5154410
  63.5284510  45.4453100   8.7780200  64.7498870  45.6274350   7.9023460
  50.8911210  41.6859760   7.0293160  51.2584250  41.5987160   7.9089180
  50.3222030  40.9226310   6.9300020  65.6915070  40.1544140  10.0423630
  65.4601160  39.9256890   9.1421580  65.9519620  41.0743690   9.9968520
  50.4427210  38.5968850  10.9351580  49.5483260  38.5635610  11.2745290
  50.9824760  38.7955640  11.7002830  64.1303140  35.3800570  12.8203330
  65.0073320  35.3883970  13.2037330  64.1423980  34.6431410  12.2095680
  65.5766410  39.2330110   3.7091350  66.1003890  38.7392760   3.0781520
  66.1625830  39.3680470   4.4538920  65.7556130  39.3169980   7.2310900
  64.8058840  39.2833520   7.3455890  65.9369140  40.2270090   6.9960670
  50.9466920  32.8717180   5.2834800  51.5943110  32.3214560   4.8429960
  51.3668760  33.1260330   6.1050610  66.4953540  37.1264410   2.1821440
  66.3852820  36.9720450   3.1203710  67.2561130  36.5985350   1.9396850
  64.8419260  33.0658540   8.6404440  65.4791480  33.6792680   9.0063630
  64.9894150  33.1019200   7.6953670  50.6998920  33.0272850   8.0260120
  50.3513740  33.4836670   8.7918300  50.3686620  32.1329980   8.1082550
  52.3063290  46.1992450  12.1913310  52.2632920  45.8285360  13.0727770
  52.4374300  47.1370020  12.3315130  56.0069320  47.7552040   7.7923030
  55.7660680  48.0226600   6.9053550  56.9471960  47.9257770   7.8473890
  58.2123740  34.2184730  11.5479540  58.1512630  34.8106560  12.2974950
  59.1524120  34.1110690  11.4029800  60.8498300  33.8754790  11.1871830
  61.4638710  34.1934080  10.5252910  61.3947860  33.3903380  11.8067690
  67.2673480  49.7746420   8.5933670  66.7731760  50.1715290   7.8760800
  66.6586770  49.1495630   8.9870950  51.3719560  32.5549050  11.3010890
  51.9202550  32.3737100  10.5377000  51.4374870  31.7643160  11.8367200
  52.1451320  49.1454700   9.3111090  51.5511640  49.0139400  10.0501130
  52.1375160  48.3092840   8.8453190  61.5906340  32.4386930   7.5141120
  60.7166180  32.7722040   7.3114050  61.4817090  31.9660110   8.3392990
  62.4978320  34.6457800   8.8982840  62.1691680  33.8309560   8.5184570
  63.4460620  34.6027610   8.7748530  64.9512930  50.4169840   5.8720410
  64.4915900  51.1685650   5.4978430  64.3225390  49.6976310   5.8135210
  51.7763550  46.5113080   8.2619130  51.0497610  45.8918370   8.1945080
  51.8372700  46.9053690   7.3917210  55.3808650  48.7258080   5.0468540
  55.8973670  48.1145440   4.5216800  56.0306030  49.2286860   5.5379550
  58.1204150  49.6166570   5.8737520  58.4081960  49.3620870   4.9970530
  58.6327370  49.0643930   6.4643090  59.3381160  33.3556770   6.4534030
  58.5552950  33.8302270   6.7330790  59.0444090  32.4511600   6.3447210
  63.8902230  34.0579870   4.4983120  64.3310320  34.0024970   3.6504720
  63.6209820  34.9737880   4.5693300  65.7540800  33.6895110   2.5091940
  65.6929200  32.7456330   2.3622960  66.5332830  33.7975200   3.0545400
  61.7260360  32.4385970   3.2033130  62.3289730  33.0106180   3.6781650
  60.9853350  33.0025410   2.9807030  58.1876510  50.5382670  13.2405720
  59.1143820  50.3026940  13.2841680  58.1726940  51.3654670  12.7591750
  55.3740120  33.2027420  13.0047600  55.0924390  33.7061020  12.2408420
  55.7559820  32.4049170  12.6389730  61.9755580  32.6181000  13.5828070
  61.8621030  32.9375610  14.4779590  62.7925320  33.0193510  13.2865350
  64.7554070  49.7652530  13.0646760  65.5479390  49.2701760  12.8572720
  65.0487220  50.4442670  13.6722370  60.8813730  21.8629980  77.8180260
  60.8007780  20.9484590  77.5471970  60.4678150  22.3597050  77.1119970
  59.0131770  23.6409000  79.6989530  58.2373870  23.1609440  79.9888100
  59.6644700  22.9614650  79.5245690  53.0297600  23.9528810  80.5765290
  52.1982480  23.6977520  80.9761800  53.6378580  24.0239580  81.3123210
  63.0339200  28.0469190  78.4788660  62.5720730  27.2756430  78.8075830
  63.8464750  28.0735260  78.9841110  53.0098860  27.9868900  80.7723310
  53.3126900  27.0966640  80.5933530  53.7542450  28.5439120  80.5445560
  51.4389550  18.9130700  74.3607680  50.5506250  19.2546670  74.2587560
  51.7230740  18.7131020  73.4688510  49.4022560  21.5136350  80.2447380
  49.9738670  20.7458550  80.2451020  49.4024100  21.8125110  79.3353990
  59.2602510  30.3327200  78.0992650  58.6413950  30.7884700  77.5287090
  60.1154290  30.4878660  77.6982350  58.4540760  26.3166190  79.7059690
  58.3849040  25.3756130  79.5448820  59.2160620  26.4067600  80.2782260
  59.4845930  19.1236570  79.9328620  59.8610750  18.2508450  79.8202290
  59.3865440  19.4595270  79.0419060  53.6150940  17.4962200  75.3946060
  53.7217690  18.3965930  75.7014820  52.7043300  17.4480170  75.1040710
  63.2670050  16.6187010  76.8656960  64.0879670  16.1283580  76.9082440
  63.3004130  17.2084670  77.6188800  51.2634100  19.4181210  80.6398650
  51.9444210  19.6819580  81.2586050  50.9482150  18.5782080  80.9736660
  55.4558670  20.4648570  79.7271240  55.9636890  20.9629540  80.3676260
  55.9871910  19.6883770  79.5510600  60.1265860  25.2166440  75.4924560
  59.5083130  25.6815890  74.9287280  60.6389110  25.9093920  75.9094070
  63.5031530  18.5587390  79.6384500  62.7987100  18.8472280  80.2187610
  63.8643690  19.3687500  79.2784060  49.4949060  25.9022970  72.8664190
  49.1177040  26.3910070  72.1349090  49.7522130  26.5748250  73.4970720
  65.1194310  28.1762520  81.9011980  64.4357830  28.8461630  81.8928650
  65.6588600  28.3743170  81.1356840  66.5718450  18.0042180  80.0293710
  65.6243360  18.0381160  80.1609140  66.8968440  18.8181130  80.4143070
  57.1037990  14.3039360  78.3249700  57.4112970  13.7486250  77.6085200
  56.1738690  14.4383820  78.1422690  62.6553050  30.0206650  80.6157160
  62.6680210  29.6168940  79.7479420  62.1028270  30.7953940  80.5118590
  63.9498470  26.7422870  75.7047330  63.8394800  25.7997200  75.8296750
  63.9466720  27.1038510  76.5910090  59.4918750  22.3688190  75.0609820
  58.5648030  22.3025570  75.2898290  59.6443570  23.3068320  74.9465060
  59.4787830  18.6405190  72.0576980  58.5391500  18.8019150  72.1429440
  59.7971090  19.3590870  71.5112970  66.0000590  23.3223710  82.0356010
  65.1719220  23.3916800  81.5606140  66.5951070  23.9078020  81.5671840
  63.5216040  23.9308490  75.5645070  62.9028460  23.5928040  74.9171370
  63.5040490  23.2868250  76.2724260  55.0975390  22.8952930  77.8429550
  54.6932390  22.1830180  77.3475450  55.1838510  22.5506170  78.7317590
  55.5657090  26.5820490  80.0068760  55.2685380  25.9765960  79.3276540
  56.5156910  26.6197800  79.8958120  61.6980740  23.1695300  72.5717820
  62.1374020  22.3317730  72.4255640  62.4109160  23.8024700  72.6581960
  59.8076120  28.1091370  76.5399060  60.2472030  28.8515700  76.1254450
  59.7463010  28.3517940  77.4638020  65.2797880  14.4238110  70.8858860
  64.9670540  14.5164940  71.7857930  66.0410350  15.0019140  70.8356290
  51.7980020  21.7897910  75.3436200  51.6777620  22.5160000  74.7317470
  51.4880910  21.0200820  74.8664110  49.4365390  24.9613050  81.1504840
  49.5145810  25.0961820  80.2060560  50.0507070  24.2528940  81.3432960
  50.6813020  26.6613240  77.5611020  50.2741100  26.8027830  76.7064620
  51.5726030  26.3773400  77.3582230  62.4746300  31.0960490  73.8962070
  62.3147440  30.8063430  74.7943900  62.3093010  30.3200620  73.3607300
  54.9534680  30.8759020  75.6733690  54.7777160  29.9594560  75.4601490
  54.0990420  31.2346310  75.9131490  62.1772430  28.6048050  72.4560070
  61.4837590  28.6025340  71.7962350  62.9195290  28.1807370  72.0254240
  61.7422360  30.2310760  76.5308560  62.1979310  29.4500140  76.8447180
  62.0814880  30.9417580  77.0749740  54.2643680  15.1332980  78.7259870
  53.8211830  15.9142520  78.3944390  54.8228670  15.4562870  79.4330810
  57.3802500  14.7543680  73.6065700  56.7556680  14.7503550  74.3319010
  57.2932620  13.8874640  73.2101670  56.3019580  15.6780310  80.5849470
  56.5991910  16.5843140  80.5041490  56.8505140  15.1899090  79.9709040
  54.0557900  20.2566550  76.4541120  53.8298820  20.0403720  77.3587740
  53.2750430  20.6895010  76.1087090  61.2855660  20.2629920  75.0531770
  60.6864550  20.9865720  74.8695390  61.8335270  20.2006700  74.2708220
  59.8920530  18.8993460  77.0835050  60.2850100  19.2165660  76.2703740
  60.2537380  18.0205340  77.1979570  48.9284700  15.4894260  79.3065250
  48.6397750  16.0597120  80.0190230  49.6730460  15.0098710  79.6696480
  49.1154930  19.4314380  70.5167970  49.0329600  20.3745140  70.6582960
  48.7637990  19.2889290  69.6380320  60.4775670  21.4899210  81.1785830
  59.7456790  21.9986020  81.5275930  60.0800010  20.6729190  80.8774610
  56.9153060  18.1653410  79.5838320  56.9189120  17.7243360  78.7342860
  57.8104180  18.4870740  79.6910140  52.7655440  18.0479900  78.5432530
  52.4255490  18.5255130  79.2999580  52.0032760  17.5945020  78.1833630
  56.9773210  19.1665490  72.5745080  57.0986030  19.1251970  73.5230900
  56.5921720  20.0289640  72.4191810  60.9401580  16.9432890  80.5908770
  60.9574320  17.3941540  81.4350620  60.6917160  16.0438530  80.8042210
  55.9894710  21.4766630  71.9728380  55.4211610  21.0284880  71.3464290
  56.6983710  21.8359410  71.4393530  50.0801520  16.9698880  77.4597200
  49.7948440  16.6054550  78.2975820  50.0180380  16.2379340  76.8460340
  53.5342190  25.4724820  74.2454790  52.7604450  24.9322440  74.0853510
  54.2636820  24.9531430  73.9072550  64.2930170  24.4690180  80.0381180
  65.0129290  24.9645470  79.6477290  64.0911990  23.7908070  79.3935050
  59.7540110  15.8628140  74.1810570  58.9404720  15.3641310  74.1055880
  59.5602060  16.7026390  73.7646920  62.4688500  20.2347790  72.4772730
  63.3568120  20.5465020  72.3024070  62.4393590  19.3620040  72.0853310
  53.5779590  25.1405200  77.8833600  54.0958260  24.3373460  77.8290490
  53.1263610  25.0784340  78.7250430  58.4649090  26.4071480  73.1560900
  58.8064790  27.1513710  72.6604220  57.6361800  26.7202600  73.5185730
  64.7402770  21.5459630  71.9452590  64.6566490  21.9773850  71.0949030
  65.4596960  22.0057980  72.3779410  65.7690020  28.4001890  74.6734720
  65.1266180  27.7457510  74.9478440  65.3820680  28.8056980  73.8975390
  61.3476500  25.7287320  78.5206410  61.7000320  25.1315450  77.8607780
  60.4638830  25.4031550  78.6914660  57.4339780  26.4885010  75.9276820
  58.1210910  27.0354220  76.3084410  56.6472200  27.0325740  75.9626430
  49.5732180  22.1057830  71.4193900  50.4427030  22.3882630  71.7029820
  49.0822500  22.9193700  71.3042710  56.7366990  23.4931040  75.5402180
  57.1929770  24.3036290  75.7662370  56.3855200  23.1754180  76.3720670
  52.6378770  13.8368690  76.0124700  52.5093400  13.8286590  76.9609620
  51.8140790  14.1751780  75.6615710  60.3131680  27.0069730  81.4871930
  60.9553910  26.3062890  81.6004100  60.8381030  27.7868170  81.3068820
  64.1587400  27.2918350  71.2111070  63.9324980  26.5748790  71.8035710
  63.7683600  27.0430790  70.3732820  49.9403430  31.3185210  71.9855530
  50.3001070  31.9174550  71.3312800  49.7995770  31.8645100  72.7590560
  63.7403650  25.2090290  72.8725230  63.4525350  25.6702980  73.6603110
  64.5355820  24.7488060  73.1409450  55.9572050  28.7016410  72.8029200
  55.9482150  29.4346100  72.1873710  55.0370410  28.4547990  72.8956160
  51.5578690  23.9231300  73.5475960  50.9506640  24.6630200  73.5571260
  52.0328040  24.0130660  72.7214160  64.4973510  17.0439060  74.0320410
  63.8686670  17.1484730  73.3178640  64.0025430  17.2635840  74.8214290
  58.9431650  28.7644650  71.4654390  59.0443630  28.5608640  70.5356370
  58.0433390  28.5102930  71.6702170  56.4657540  19.3225010  75.4478290
  55.7573690  19.7911350  75.8891900  56.7502020  18.6647020  76.0823480
  60.4972970  16.0475670  76.8874080  60.3740750  16.0661800  75.9383590
  61.4457530  16.0954610  77.0072480  57.5849760  31.2830970  76.1602060
  57.8391260  31.2452360  75.2381430  56.6362240  31.1564300  76.1530310
  54.6692560  17.6310090  72.8229000  55.5183090  18.0680240  72.7569190
  54.3023830  17.9430350  73.6501060  63.5902340  22.2022850  77.7360570
  62.6492480  22.2173080  77.9108260  63.9046410  21.4158810  78.1820870
  53.5683980  23.8842450  71.2964530  54.3347250  23.7723810  71.8589960
  53.6458670  23.1880420  70.6441300  52.2630740  21.3167520  71.9797420
  52.3434330  20.3695030  72.0914820  53.1550490  21.6474400  72.0858080
  65.5927920  29.3731700  79.4114830  65.7175340  30.1962870  79.8838640
  66.4593480  29.1622430  79.0638980  53.0645450  31.4662910  79.0831960
  53.8007930  30.9178370  79.3540530  53.4486370  32.3318920  78.9437950
  49.9490930  27.5336480  74.9573470  49.0230710  27.7757620  74.9478880
  50.4147360  28.3610740  74.8358220  56.1747760  30.6393220  70.9057530
  56.9676370  30.9282050  70.4539320  55.6552110  30.2085390  70.2270010
  65.2277930  29.8663350  72.3294270  64.9419440  29.4528490  71.5148450
  65.0297480  30.7951060  72.2094790  56.6925160  25.8596630  70.7699880
  56.5875800  25.2448980  71.4961260  56.5249380  25.3362520  69.9862890
  59.9327890  24.9216660  71.3741870  59.3837990  25.3685960  72.0184610
  60.5547150  24.4165910  71.8979540  55.6003010  23.8807580  73.2707170
  56.0219430  23.7147450  74.1138560  55.7253850  23.0707810  72.7762310
  58.1130650  22.9045190  70.5184270  58.6336310  22.1894210  70.1525420
  58.7599050  23.5431060  70.8184780  54.4961910  19.9540810  70.2165330
  54.2950970  19.0908170  70.5778670  54.3253960  19.8674170  69.2786930
  61.9750220  14.7649040  72.7452210  62.2552510  13.9216940  73.1011630
  61.2015950  14.9972150  73.2590960  53.2944710  17.0541430  70.2043210
  53.5970610  17.0608860  69.2962360  54.0339300  16.7039290  70.7010870
  56.5129640  15.9976050  71.1899410  56.1651640  15.3200040  70.6101860
  56.7142410  15.5365560  72.0042800  58.6778680  30.9856800  72.8086010
  59.5729470  31.3241770  72.8304770  58.7096310  30.2636210  72.1810290
  52.3174840  26.3583850  71.0373010  52.7549710  26.9013520  71.6930590
  52.8022570  25.5330800  71.0469350  49.5320640  29.1472880  78.4893270
  49.8623650  28.2793940  78.2571910  49.9611640  29.3531400  79.3198230
  54.1282560  27.4781890  76.1495240  53.8278100  27.3546860  77.0499150
  54.0220050  26.6190480  75.7410970  66.8974480  27.2578290  70.8521920
  66.0667440  27.3254940  71.3229150  67.0746310  28.1482410  70.5488780
  66.3530940  24.0025770  73.3556120  67.1149850  24.5722420  73.4615810
  66.3685310  23.4352970  74.1264430  49.8535280  22.5263700  77.5863780
  49.1984120  22.2575340  76.9423480  50.6913230  22.4168180  77.1365760
  67.3590910  24.8575870  78.1998050  67.7299740  24.0743190  77.7934020
  67.9992840  25.5464970  78.0215350  66.4050110  24.2960140  70.5128640
  66.6798950  25.2039020  70.3847860  66.2160850  24.2322670  71.4490630
  62.8025720  17.3204990  71.8082270  63.2210600  17.1335970  70.9678930
  62.4961780  16.4684040  72.1185200  66.3015450  22.2329130  75.5058070
  65.9259050  21.4657060  75.0739360  65.5718570  22.6151830  75.9933000
  49.0673360  19.7362630  73.5289110  48.1637440  19.9992830  73.3540770
  49.5513980  20.0073800  72.7489070  65.5766410  20.4586620  78.8065310
  66.1003890  19.9649270  78.1755480  66.1625830  20.5936980  79.5512880
  51.6100570  18.7928170  71.4383490  52.3192270  18.3711390  70.9530770
  50.8940510  18.8603400  70.8066840  51.2574730  14.8467500  70.4786140
  51.9802860  15.3876440  70.7967360  51.5299250  14.5730920  69.6027680
  65.0666380  19.7159970  74.7457720  65.5625500  19.4830840  75.5306600
  64.8682450  18.8771810  74.3295360  50.9466920  14.0973690  80.3808760
  51.5943110  13.5471070  79.9403920  51.3668760  14.3516840  81.2024570
  66.4953540  18.3520920  77.2795400  66.3852820  18.1976960  78.2177670
  67.2561130  17.8241860  77.0370810  67.3843810  16.1828840  70.5201540
  68.3093120  16.0510020  70.3119830  67.3619600  16.2621660  71.4737990
  67.4582300  16.9539500  73.1458250  66.6633800  16.8884620  73.6751160
  67.6625580  17.8890140  73.1343600  64.4000720  30.9931050  77.1396640
  64.9959790  30.6715620  76.4631060  64.6578870  30.5202870  77.9309910
  64.9512930  31.6426350  80.9694370  64.4915900  32.3942160  80.5952390
  64.3225390  30.9232820  80.9109170  55.3808650  29.9514590  80.1442500
  55.8973670  29.3401950  79.6190760  56.0306030  30.4543370  80.6353510
  58.1204150  30.8423080  80.9711480  58.4081960  30.5877380  80.0944490
  58.6327370  30.2900440  81.5617050  59.3381160  14.5813280  81.5507990
  58.5552950  15.0558780  81.8304750  59.0444090  13.6768110  81.4421170
  63.8902230  15.2836380  79.5957080  64.3310320  15.2281480  78.7478680
  63.6209820  16.1994390  79.6667260  65.7540800  14.9151620  77.6065900
  65.6929200  13.9712840  77.4596920  66.5332830  15.0231710  78.1519360
  50.0593550  31.0543980  76.5689850  49.8915590  30.4214660  77.2671740
  49.1928060  31.2603380  76.2184040  50.6821570  14.8860760  74.0721710
  51.4400930  14.9989640  73.4985740  50.2198740  15.7229960  74.0265140
  57.2235380  17.0000030  77.0624020  56.4109890  16.6256920  76.7219900
  57.7277020  16.2445110  77.3645210  61.7260360  13.6642480  78.3007090
  62.3289730  14.2362690  78.7755610  60.9853350  14.2281920  78.0780990
  64.8694960  14.0664040  73.5747370  65.0645590  14.9647490  73.8414800
  64.0824830  13.8351120  74.0680320  51.6656250  29.7477210  74.0139990
  51.1403870  30.1285240  73.3101950  51.5900830  30.3727980  74.7349700
  53.0546720  15.4124810  72.6123680  53.5839480  14.6254610  72.4831630
  53.6875040  16.0916000  72.8459210  55.2484560  15.1499950  75.6669070
  54.6187300  14.4487260  75.8339200  54.7089700  15.9104080  75.4502230
  66.4221570  31.3064750  75.3353930  66.5973760  30.6202490  74.6914850
  65.7243140  31.8311800  74.9430600  54.2649220  31.6959590  72.8889240
  54.9968040  31.4118870  72.3413130  54.5242890  31.4572870  73.7788620
  53.4264010  27.8124320  72.8935570  52.7972890  28.2809420  73.4421400
  53.5411840  26.9673540  73.3281760  60.8813730  21.8629980  59.0436770
  60.8007780  20.9484590  58.7728480  60.4678150  22.3597050  58.3376480
  63.0339200  28.0469190  59.7045170  62.5720730  27.2756430  60.0332340
  63.8464750  28.0735260  60.2097620  59.2602510  30.3327200  59.3249160
  58.6413950  30.7884700  58.7543600  60.1154290  30.4878660  58.9238860
  63.2670050  16.6187010  58.0913470  64.0879670  16.1283580  58.1338950
  63.3004130  17.2084670  58.8445310  67.5569600  18.6353760  64.6557100
  66.8521770  19.0235470  64.1372210  67.8227520  19.3304050  65.2578030
  53.7394770  15.1047130  65.2191170  53.7413210  15.6219520  64.4137070
  52.9099080  14.6277310  65.1961100  60.1265860  25.2166440  56.7181070
  59.5083130  25.6815890  56.1543790  60.6389110  25.9093920  57.1350580
  63.5031530  18.5587390  60.8641010  62.7987100  18.8472280  61.4444120
  63.8643690  19.3687500  60.5040570  65.1194310  28.1762520  63.1268490
  64.4357830  28.8461630  63.1185160  65.6588600  28.3743170  62.3613350
  66.5718450  18.0042180  61.2550220  65.6243360  18.0381160  61.3865650
  66.8968440  18.8181130  61.6399580  57.1037990  14.3039360  59.5506210
  57.4112970  13.7486250  58.8341710  56.1738690  14.4383820  59.3679200
  62.6553050  30.0206650  61.8413670  62.6680210  29.6168940  60.9735930
  62.1028270  30.7953940  61.7375100  63.9498470  26.7422870  56.9303840
  63.8394800  25.7997200  57.0553260  63.9466720  27.1038510  57.8166600
  62.0538490  24.9236490  63.1696280  62.4707280  24.7096600  62.3349740
  62.7778310  25.1809280  63.7404900  59.4918750  22.3688190  56.2866330
  58.5648030  22.3025570  56.5154800  59.6443570  23.3068320  56.1721570
  66.0000590  23.3223710  63.2612520  65.1719220  23.3916800  62.7862650
  66.5951070  23.9078020  62.7928350  63.5216040  23.9308490  56.7901580
  62.9028460  23.5928040  56.1427880  63.5040490  23.2868250  57.4980770
  62.9642600  20.1093030  64.2067390  62.5513780  20.9346740  64.4607380
  62.2318550  19.5238070  64.0143750  63.6542700  30.1552360  64.8948370
  63.1773260  30.9624550  64.7020980  62.9704490  29.5030690  65.0474580
  54.6575520  26.3202180  67.8833070  53.7604050  26.5442150  68.1306470
  54.6828390  26.4437120  66.9344470  61.6980740  23.1695300  53.7974330
  62.1374020  22.3317730  53.6512150  62.4109160  23.8024700  53.8838470
  55.2827090  29.1337200  68.6675590  55.2542520  29.5380150  67.8004020
  55.1192060  28.2047560  68.5047190  65.2797880  14.4238110  52.1115370
  64.9670540  14.5164940  53.0114440  66.0410350  15.0019140  52.0612800
  67.2341910  29.9164300  69.9639760  67.7101630  30.3947190  70.6428840
  67.8549070  29.8481790  69.2385260  66.6375160  27.1077150  67.1239770
  66.7638220  26.8689030  66.2056950  66.6796540  26.2761690  67.5961850
  60.4991900  30.8105150  65.6934580  61.0136570  30.7213160  66.4957010
  59.6560980  31.1564850  65.9862490  61.7422360  30.2310760  57.7565070
  62.1979310  29.4500140  58.0703690  62.0814880  30.9417580  58.3006250
  66.4899170  19.1609610  68.0889510  65.8743440  19.6689280  67.5604970
  66.1695590  18.2607940  68.0315450  54.2643680  15.1332980  59.9516380
  53.8211830  15.9142520  59.6200900  54.8228670  15.4562870  60.6587320
  58.5513490  18.0001500  65.5551700  58.0892860  18.2084520  66.3671640
  58.1491600  17.1860850  65.2522370  63.5518000  19.2210450  66.6848360
  62.7011590  18.9216200  67.0057430  63.3919790  19.4652460  65.7732180
  60.6467710  20.7212200  68.7847150  60.9721120  19.8875950  68.4449380
  61.4348040  21.2440720  68.9325480  57.3802500  14.7543680  54.8322210
  56.7556680  14.7503550  55.5575520  57.2932620  13.8874640  54.4358180
  56.3019580  15.6780310  61.8105980  56.5991910  16.5843140  61.7298000
  56.8505140  15.1899090  61.1965550  61.2855660  20.2629920  56.2788280
  60.6864550  20.9865720  56.0951900  61.8335270  20.2006700  55.4964730
  56.4957110  21.1552130  68.3457900  56.4000710  20.2146860  68.1958300
  57.3389090  21.3767200  67.9505970  58.2012700  17.6500770  69.5688420
  57.5111020  17.4572970  70.2034510  58.9445000  17.9335410  70.1012720
  48.9284700  15.4894260  60.5321760  48.6397750  16.0597120  61.2446740
  49.6730460  15.0098710  60.8952990  49.1154930  19.4314380  51.7424480
  49.0329600  20.3745140  51.8839470  48.7637990  19.2889290  50.8636830
  60.4775670  21.4899210  62.4042340  59.7456790  21.9986020  62.7532440
  60.0800010  20.6729190  62.1031120  60.9401580  16.9432890  61.8165280
  60.9574320  17.3941540  62.6607130  60.6917160  16.0438530  62.0298720
  64.3672330  14.3565070  67.6551660  64.6918100  13.6254730  68.1809640
  64.4028840  14.0378710  66.7532650  64.2930170  24.4690180  61.2637690
  65.0129290  24.9645470  60.8733800  64.0911990  23.7908070  60.6191560
  59.7540110  15.8628140  55.4067080  58.9404720  15.3641310  55.3312390
  59.5602060  16.7026390  54.9903430  59.6748970  24.5399240  67.1506690
  59.6086280  23.6194910  66.8964280  59.0454110  24.6374680  67.8651330
  62.4688500  20.2347790  53.7029240  63.3568120  20.5465020  53.5280580
  62.4393590  19.3620040  53.3109820  59.6065700  27.3619810  66.9010490
  59.6210240  26.4300770  66.6829400  58.8990800  27.4479570  67.5400260
  64.7402770  21.5459630  53.1709100  64.6566490  21.9773850  52.3205540
  65.4596960  22.0057980  53.6035920  65.8176910  24.0027150  66.2479070
  65.0925100  24.5955930  66.0508460  66.3452370  23.9950690  65.4492440
  65.7690020  28.4001890  55.8991230  65.1266180  27.7457510  56.1734950
  65.3820680  28.8056980  55.1231900  61.3476500  25.7287320  59.7462920
  61.7000320  25.1315450  59.0864290  60.4638830  25.4031550  59.9171170
  59.0399600  29.0037380  63.9950990  59.6841820  29.2096760  64.6724410
  59.4029040  28.2425780  63.5421840  60.3131680  27.0069730  62.7128440
  60.9553910  26.3062890  62.8260610  60.8381030  27.7868170  62.5325330
  62.0869300  27.8064630  65.9164500  62.4225540  28.3931320  66.5942420
  61.1669640  27.6757340  66.1462290  49.6372700  15.5959810  66.6987910
  48.9231220  15.7956730  67.3040520  50.0567740  14.8199380  67.0702710
  63.7403650  25.2090290  54.0981740  63.4525350  25.6702980  54.8859620
  64.5355820  24.7488060  54.3665960  57.9157880  27.8555960  69.0852560
  57.5954750  27.1365200  69.6298250  57.2416240  28.5311030  69.1588620
  61.1311480  18.0882120  64.4489360  61.4992300  17.2677330  64.7768930
  60.2709680  18.1484010  64.8645010  64.4973510  17.0439060  55.2576920
  63.8686670  17.1484730  54.5435150  64.0025430  17.2635840  56.0470800
  65.2980330  16.9589670  65.5155720  64.7953930  17.6995070  65.8549530
  66.1136990  17.3473670  65.1992510  63.5902340  22.2022850  58.9617080
  62.6492480  22.2173080  59.1364770  63.9046410  21.4158810  59.4077380
  65.5927920  29.3731700  60.6371340  65.7175340  30.1962870  61.1095150
  66.4593480  29.1622430  60.2895490  52.0703730  30.6508980  69.4974050
  52.8716460  30.9721030  69.9109450  51.5555550  30.2904560  70.2193960
  60.9068360  26.7588850  69.4449460  60.3006520  26.7820450  68.7045210
  60.6022470  26.0271890  69.9816710  62.3368730  30.4869140  68.0558870
  63.2890480  30.4027160  68.0059110  62.1896950  31.1510850  68.7292660
  65.2277930  29.8663350  53.5550780  64.9419440  29.4528490  52.7404960
  65.0297480  30.7951060  53.4351300  56.8439480  24.5453430  67.9745620
  56.0785150  25.1138430  67.8900290  57.0255440  24.2529640  67.0813850
  63.9862830  26.2758760  68.5320640  64.7272300  26.6134520  68.0288100
  63.2235510  26.4450820  67.9790410  62.6608490  24.3273590  67.0675850
  63.0749510  24.4818670  67.9166270  61.7259490  24.4528810  67.2301630
  63.1330660  21.6669750  69.0715000  63.7151430  20.9122070  68.9835480
  63.3092430  22.1977190  68.2946480  54.2502730  16.8266500  67.3831950
  54.1559600  16.2087250  66.6582820  53.6700120  17.5532790  67.1561860
  57.0164170  15.3839740  64.4159340  56.5681470  15.4064000  63.5704890
  56.3829370  14.9858760  65.0129640  57.4223720  24.2794070  65.0371780
  57.8411830  25.1226800  64.8648020  56.5032350  24.4166110  64.8078560
  59.7587620  22.0110250  66.4209620  59.8783830  21.4151390  67.1604460
  60.6181620  22.0479940  66.0010920  62.0975520  22.5647440  64.9972130
  61.5710740  23.0890060  64.3937270  62.4406860  23.1974830  65.6281860
  55.2731140  30.5847080  66.1529510  54.7352230  31.3093140  65.8338210
  55.5265100  30.1077420  65.3626850  56.5256390  18.5531600  67.6785440
  57.1156080  18.2447450  68.3663260  55.7076630  18.0811350  67.8345340
  61.3449820  18.1697410  67.9118460  60.6565340  17.5078950  67.8468450
  62.0655840  17.7235680  68.3566920  61.9750220  14.7649040  53.9708720
  62.2552510  13.9216940  54.3268140  61.2015950  14.9972150  54.4847470
  58.1293350  31.8198290  66.4116160  58.0552050  32.7233430  66.7188530
  57.2272190  31.5010190  66.3838230  65.6573030  29.5160470  66.7408720
  65.0575020  29.5753030  65.9972640  65.7866930  28.5765450  66.8705570
  66.8974480  27.2578290  52.0778430  66.0667440  27.3254940  52.5485660
  67.0746310  28.1482410  51.7745290  66.3530940  24.0025770  54.5812630
  67.1149850  24.5722420  54.6872320  66.3685310  23.4352970  55.3520940
  67.3590910  24.8575870  59.4254560  67.7299740  24.0743190  59.0190530
  67.9992840  25.5464970  59.2471860  64.3424670  26.2412450  64.8384880
  63.5284510  26.6709610  65.1010670  64.7498870  26.8530860  64.2253930
  66.4050110  24.2960140  51.7385150  66.6798950  25.2039020  51.6104370
  66.2160850  24.2322670  52.6747140  62.8025720  17.3204990  53.0338780
  63.2210600  17.1335970  52.1935440  62.4961780  16.4684040  53.3441710
  66.3015450  22.2329130  56.7314580  65.9259050  21.4657060  56.2995870
  65.5718570  22.6151830  57.2189510  65.6915070  21.3800650  66.3654100
  65.4601160  21.1513400  65.4652050  65.9519620  22.3000200  66.3198990
  64.1303140  16.6057080  69.1433800  65.0073320  16.6140480  69.5267800
  64.1423980  15.8687920  68.5326150  65.5766410  20.4586620  60.0321820
  66.1003890  19.9649270  59.4011990  66.1625830  20.5936980  60.7769390
  65.7556130  20.5426490  63.5541370  64.8058840  20.5090030  63.6686360
  65.9369140  21.4526600  63.3191140  65.0666380  19.7159970  55.9714230
  65.5625500  19.4830840  56.7563110  64.8682450  18.8771810  55.5551870
  50.9466920  14.0973690  61.6065270  51.5943110  13.5471070  61.1660430
  51.3668760  14.3516840  62.4281080  66.4953540  18.3520920  58.5051910
  66.3852820  18.1976960  59.4434180  67.2561130  17.8241860  58.2627320
  64.8419260  14.2915050  64.9634910  65.4791480  14.9049190  65.3294100
  64.9894150  14.3275710  64.0184140  67.3843810  16.1828840  51.7458050
  68.3093120  16.0510020  51.5376340  67.3619600  16.2621660  52.6994500
  67.4582300  16.9539500  54.3714760  66.6633800  16.8884620  54.9007670
  67.6625580  17.8890140  54.3600110  64.4000720  30.9931050  58.3653150
  64.9959790  30.6715620  57.6887570  64.6578870  30.5202870  59.1566420
  50.6998920  14.2529360  64.3490590  50.3513740  14.7093180  65.1148770
  50.3686620  13.3586490  64.4313020  58.2123740  15.4441240  67.8710010
  58.1512630  16.0363070  68.6205420  59.1524120  15.3367200  67.7260270
  60.8498300  15.1011300  67.5102300  61.4638710  15.4190590  66.8483380
  61.3947860  14.6159890  68.1298160  67.2673480  31.0002930  64.9164140
  66.7731760  31.3971800  64.1991270  66.6586770  30.3752140  65.3101420
  51.3719560  13.7805560  67.6241360  51.9202550  13.5993610  66.8607470
  51.4374870  12.9899670  68.1597670  61.5906340  13.6643440  63.8371590
  60.7166180  13.9978550  63.6344520  61.4817090  13.1916620  64.6623460
  62.4978320  15.8714310  65.2213310  62.1691680  15.0566070  64.8415040
  63.4460620  15.8284120  65.0979000  64.9512930  31.6426350  62.1950880
  64.4915900  32.3942160  61.8208900  64.3225390  30.9232820  62.1365680
  59.3381160  14.5813280  62.7764500  58.5552950  15.0558780  63.0561260
  59.0444090  13.6768110  62.6677680  63.8902230  15.2836380  60.8213590
  64.3310320  15.2281480  59.9735190  63.6209820  16.1994390  60.8923770
  65.7540800  14.9151620  58.8322410  65.6929200  13.9712840  58.6853430
  66.5332830  15.0231710  59.3775870  61.7260360  13.6642480  59.5263600
  62.3289730  14.2362690  60.0012120  60.9853350  14.2281920  59.3037500
  64.8694960  14.0664040  54.8003880  65.0645590  14.9647490  55.0671310
  64.0824830  13.8351120  55.2936830  55.2484560  15.1499950  56.8925580
  54.6187300  14.4487260  57.0595710  54.7089700  15.9104080  56.6758740
  58.1876510  31.7639180  69.5636190  59.1143820  31.5283450  69.6072150
  58.1726940  32.5911180  69.0822220  66.4221570  31.3064750  56.5610440
  66.5973760  30.6202490  55.9171360  65.7243140  31.8311800  56.1687110
  55.3740120  14.4283930  69.3278070  55.0924390  14.9317530  68.5638890
  55.7559820  13.6305680  68.9620200  61.9755580  13.8437510  69.9058540
  61.8621030  14.1632120  70.8010060  62.7925320  14.2450020  69.6095820
  64.7554070  30.9909040  69.3877230  65.5479390  30.4958270  69.1803190
  65.0487220  31.6699180  69.9952840  60.8813730  21.8629980  40.2693280
  60.8007780  20.9484590  39.9984990  60.4678150  22.3597050  39.5632990
  59.0131770  23.6409000  42.1502550  58.2373870  23.1609440  42.4401120
  59.6644700  22.9614650  41.9758710  53.0297600  23.9528810  43.0278310
  52.1982480  23.6977520  43.4274820  53.6378580  24.0239580  43.7636230
  63.0339200  28.0469190  40.9301680  62.5720730  27.2756430  41.2588850
  63.8464750  28.0735260  41.4354130  59.2602510  30.3327200  40.5505670
  58.6413950  30.7884700  39.9800110  60.1154290  30.4878660  40.1495370
  58.4540760  26.3166190  42.1572710  58.3849040  25.3756130  41.9961840
  59.2160620  26.4067600  42.7295280  59.4845930  19.1236570  42.3841640
  59.8610750  18.2508450  42.2715310  59.3865440  19.4595270  41.4932080
  63.2670050  16.6187010  39.3169980  64.0879670  16.1283580  39.3595460
  63.3004130  17.2084670  40.0701820  55.4558670  20.4648570  42.1784260
  55.9636890  20.9629540  42.8189280  55.9871910  19.6883770  42.0023620
  67.5569600  18.6353760  45.8813610  66.8521770  19.0235470  45.3628720
  67.8227520  19.3304050  46.4834540  53.7394770  15.1047130  46.4447680
  53.7413210  15.6219520  45.6393580  52.9099080  14.6277310  46.4217610
  60.1265860  25.2166440  37.9437580  59.5083130  25.6815890  37.3800300
  60.6389110  25.9093920  38.3607090  54.9897620  24.7442310  44.6221180
  54.6567000  25.3711230  45.2642250  55.1664300  25.2704190  43.8422850
  63.5031530  18.5587390  42.0897520  62.7987100  18.8472280  42.6700630
  63.8643690  19.3687500  41.7297080  53.4210100  16.8157090  44.4518130
  53.7626910  17.6599140  44.1572000  52.4825910  16.9640830  44.5683470
  65.1194310  28.1762520  44.3525000  64.4357830  28.8461630  44.3441670
  65.6588600  28.3743170  43.5869860  66.5718450  18.0042180  42.4806730
  65.6243360  18.0381160  42.6122160  66.8968440  18.8181130  42.8656090
  57.1037990  14.3039360  40.7762720  57.4112970  13.7486250  40.0598220
  56.1738690  14.4383820  40.5935710  62.6553050  30.0206650  43.0670180
  62.6680210  29.6168940  42.1992440  62.1028270  30.7953940  42.9631610
  63.9498470  26.7422870  38.1560350  63.8394800  25.7997200  38.2809770
  63.9466720  27.1038510  39.0423110  62.0538490  24.9236490  44.3952790
  62.4707280  24.7096600  43.5606250  62.7778310  25.1809280  44.9661410
  59.4918750  22.3688190  37.5122840  58.5648030  22.3025570  37.7411310
  59.6443570  23.3068320  37.3978080  59.4787830  18.6405190  34.5090000
  58.5391500  18.8019150  34.5942460  59.7971090  19.3590870  33.9625990
  66.0000590  23.3223710  44.4869030  65.1719220  23.3916800  44.0119160
  66.5951070  23.9078020  44.0184860  63.5216040  23.9308490  38.0158090
  62.9028460  23.5928040  37.3684390  63.5040490  23.2868250  38.7237280
  62.9642600  20.1093030  45.4323900  62.5513780  20.9346740  45.6863890
  62.2318550  19.5238070  45.2400260  55.0975390  22.8952930  40.2942570
  54.6932390  22.1830180  39.7988470  55.1838510  22.5506170  41.1830610
  53.8104010  19.6696140  44.0741610  54.3618600  19.7791480  43.2994860
  54.3247520  20.0433740  44.7896840  63.6542700  30.1552360  46.1204880
  63.1773260  30.9624550  45.9277490  62.9704490  29.5030690  46.2731090
  61.6980740  23.1695300  35.0230840  62.1374020  22.3317730  34.8768660
  62.4109160  23.8024700  35.1094980  59.8076120  28.1091370  38.9912080
  60.2472030  28.8515700  38.5767470  59.7463010  28.3517940  39.9151040
  65.2797880  14.4238110  33.3371880  64.9670540  14.5164940  34.2370950
  66.0410350  15.0019140  33.2869310  67.2341910  29.9164300  51.1896270
  67.7101630  30.3947190  51.8685350  67.8549070  29.8481790  50.4641770
  66.6375160  27.1077150  48.3496280  66.7638220  26.8689030  47.4313460
  66.6796540  26.2761690  48.8218360  60.4991900  30.8105150  46.9191090
  61.0136570  30.7213160  47.7213520  59.6560980  31.1564850  47.2119000
  62.4746300  31.0960490  36.3475090  62.3147440  30.8063430  37.2456920
  62.3093010  30.3200620  35.8120320  62.1772430  28.6048050  34.9073090
  61.4837590  28.6025340  34.2475370  62.9195290  28.1807370  34.4767260
  61.7422360  30.2310760  38.9821580  62.1979310  29.4500140  39.2960200
  62.0814880  30.9417580  39.5262760  66.4899170  19.1609610  49.3146020
  65.8743440  19.6689280  48.7861480  66.1695590  18.2607940  49.2571960
  54.2643680  15.1332980  41.1772890  53.8211830  15.9142520  40.8457410
  54.8228670  15.4562870  41.8843830  58.5513490  18.0001500  46.7808210
  58.0892860  18.2084520  47.5928150  58.1491600  17.1860850  46.4778880
  63.5518000  19.2210450  47.9104870  62.7011590  18.9216200  48.2313940
  63.3919790  19.4652460  46.9988690  57.3802500  14.7543680  36.0578720
  56.7556680  14.7503550  36.7832030  57.2932620  13.8874640  35.6614690
  56.3019580  15.6780310  43.0362490  56.5991910  16.5843140  42.9554510
  56.8505140  15.1899090  42.4222060  54.0557900  20.2566550  38.9054140
  53.8298820  20.0403720  39.8100760  53.2750430  20.6895010  38.5600110
  61.2855660  20.2629920  37.5044790  60.6864550  20.9865720  37.3208410
  61.8335270  20.2006700  36.7221240  59.8920530  18.8993460  39.5348070
  60.2850100  19.2165660  38.7216760  60.2537380  18.0205340  39.6492590
  51.6267650  17.5665800  47.7248190  51.2331040  18.4141010  47.9320970
  50.9386050  16.9292170  47.9156830  60.4775670  21.4899210  43.6298850
  59.7456790  21.9986020  43.9788950  60.0800010  20.6729190  43.3287630
  56.9153060  18.1653410  42.0351340  56.9189120  17.7243360  41.1855880
  57.8104180  18.4870740  42.1423160  52.7655440  18.0479900  40.9945550
  52.4255490  18.5255130  41.7512600  52.0032760  17.5945020  40.6346650
  56.9773210  19.1665490  35.0258100  57.0986030  19.1251970  35.9743920
  56.5921720  20.0289640  34.8704830  60.9401580  16.9432890  43.0421790
  60.9574320  17.3941540  43.8863640  60.6917160  16.0438530  43.2555230
  55.9894710  21.4766630  34.4241400  55.4211610  21.0284880  33.7977310
  56.6983710  21.8359410  33.8906550  64.3672330  14.3565070  48.8808170
  64.6918100  13.6254730  49.4066150  64.4028840  14.0378710  47.9789160
  57.2161030  22.2255190  43.7816750  57.5831160  21.7513760  44.5278090
  57.0266090  23.0996760  44.1225090  55.0060400  21.2663830  46.1000960
  54.7017470  22.1455810  46.3251320  55.9606860  21.3263620  46.1358400
  64.2930170  24.4690180  42.4894200  65.0129290  24.9645470  42.0990310
  64.0911990  23.7908070  41.8448070  59.7540110  15.8628140  36.6323590
  58.9404720  15.3641310  36.5568900  59.5602060  16.7026390  36.2159940
  62.4688500  20.2347790  34.9285750  63.3568120  20.5465020  34.7537090
  62.4393590  19.3620040  34.5366330  58.4649090  26.4071480  35.6073920
  58.8064790  27.1513710  35.1117240  57.6361800  26.7202600  35.9698750
  59.6065700  27.3619810  48.1267000  59.6210240  26.4300770  47.9085910
  58.8990800  27.4479570  48.7656770  64.7402770  21.5459630  34.3965610
  64.6566490  21.9773850  33.5462050  65.4596960  22.0057980  34.8292430
  65.8176910  24.0027150  47.4735580  65.0925100  24.5955930  47.2764970
  66.3452370  23.9950690  46.6748950  65.7690020  28.4001890  37.1247740
  65.1266180  27.7457510  37.3991460  65.3820680  28.8056980  36.3488410
  61.3476500  25.7287320  40.9719430  61.7000320  25.1315450  40.3120800
  60.4638830  25.4031550  41.1427680  57.4339780  26.4885010  38.3789840
  58.1210910  27.0354220  38.7597430  56.6472200  27.0325740  38.4139450
  56.7366990  23.4931040  37.9915200  57.1929770  24.3036290  38.2175390
  56.3855200  23.1754180  38.8233690  59.0399600  29.0037380  45.2207500
  59.6841820  29.2096760  45.8980920  59.4029040  28.2425780  44.7678350
  52.6378770  13.8368690  38.4637720  52.5093400  13.8286590  39.4122640
  51.8140790  14.1751780  38.1128730  60.3131680  27.0069730  43.9384950
  60.9553910  26.3062890  44.0517120  60.8381030  27.7868170  43.7581840
  64.1587400  27.2918350  33.6624090  63.9324980  26.5748790  34.2548730
  63.7683600  27.0430790  32.8245840  62.0869300  27.8064630  47.1421010
  62.4225540  28.3931320  47.8198930  61.1669640  27.6757340  47.3718800
  49.9403430  31.3185210  34.4368550  50.3001070  31.9174550  33.7825820
  49.7995770  31.8645100  35.2103580  49.6372700  15.5959810  47.9244420
  48.9231220  15.7956730  48.5297030  50.0567740  14.8199380  48.2959220
  63.7403650  25.2090290  35.3238250  63.4525350  25.6702980  36.1116130
  64.5355820  24.7488060  35.5922470  55.9572050  28.7016410  35.2542220
  55.9482150  29.4346100  34.6386730  55.0370410  28.4547990  35.3469180
  61.1311480  18.0882120  45.6745870  61.4992300  17.2677330  46.0025440
  60.2709680  18.1484010  46.0901520  64.4973510  17.0439060  36.4833430
  63.8686670  17.1484730  35.7691660  64.0025430  17.2635840  37.2727310
  58.9431650  28.7644650  33.9167410  59.0443630  28.5608640  32.9869390
  58.0433390  28.5102930  34.1215190  56.4657540  19.3225010  37.8991310
  55.7573690  19.7911350  38.3404920  56.7502020  18.6647020  38.5336500
  58.0913470  20.7421710  45.8983840  58.5898720  21.2167530  46.5635690
  58.2336420  19.8185230  46.1053870  60.4972970  16.0475670  39.3387100
  60.3740750  16.0661800  38.3896610  61.4457530  16.0954610  39.4585500
  57.5849760  31.2830970  38.6115080  57.8391260  31.2452360  37.6894450
  56.6362240  31.1564300  38.6043330  54.6692560  17.6310090  35.2742020
  55.5183090  18.0680240  35.2082210  54.3023830  17.9430350  36.1014080
  65.2980330  16.9589670  46.7412230  64.7953930  17.6995070  47.0806040
  66.1136990  17.3473670  46.4249020  63.5902340  22.2022850  40.1873590
  62.6492480  22.2173080  40.3621280  63.9046410  21.4158810  40.6333890
  65.5927920  29.3731700  41.8627850  65.7175340  30.1962870  42.3351660
  66.4593480  29.1622430  41.5152000  56.1747760  30.6393220  33.3570550
  56.9676370  30.9282050  32.9052340  55.6552110  30.2085390  32.6783030
  65.2277930  29.8663350  34.7807290  64.9419440  29.4528490  33.9661470
  65.0297480  30.7951060  34.6607810  56.6925160  25.8596630  33.2212900
  56.5875800  25.2448980  33.9474280  56.5249380  25.3362520  32.4375910
  59.9327890  24.9216660  33.8254890  59.3837990  25.3685960  34.4697630
  60.5547150  24.4165910  34.3492560  63.9862830  26.2758760  49.7577150
  64.7272300  26.6134520  49.2544610  63.2235510  26.4450820  49.2046920
  55.6003010  23.8807580  35.7220190  56.0219430  23.7147450  36.5651580
  55.7253850  23.0707810  35.2275330  58.1130650  22.9045190  32.9697290
  58.6336310  22.1894210  32.6038440  58.7599050  23.5431060  33.2697800
  62.6608490  24.3273590  48.2932360  63.0749510  24.4818670  49.1422780
  61.7259490  24.4528810  48.4558140  63.1330660  21.6669750  50.2971510
  63.7151430  20.9122070  50.2091990  63.3092430  22.1977190  49.5202990
  54.2502730  16.8266500  48.6088460  54.1559600  16.2087250  47.8839330
  53.6700120  17.5532790  48.3818370  57.0164170  15.3839740  45.6415850
  56.5681470  15.4064000  44.7961400  56.3829370  14.9858760  46.2386150
  57.4223720  24.2794070  46.2628290  57.8411830  25.1226800  46.0904530
  56.5032350  24.4166110  46.0335070  62.0975520  22.5647440  46.2228640
  61.5710740  23.0890060  45.6193780  62.4406860  23.1974830  46.8538370
  54.4961910  19.9540810  32.6678350  54.2950970  19.0908170  33.0291690
  54.3253960  19.8674170  31.7299950  61.3449820  18.1697410  49.1374970
  60.6565340  17.5078950  49.0724960  62.0655840  17.7235680  49.5823430
  61.9750220  14.7649040  35.1965230  62.2552510  13.9216940  35.5524650
  61.2015950  14.9972150  35.7103980  53.2944710  17.0541430  32.6556230
  53.5970610  17.0608860  31.7475380  54.0339300  16.7039290  33.1523890
  56.5129640  15.9976050  33.6412430  56.1651640  15.3200040  33.0614880
  56.7142410  15.5365560  34.4555820  58.6778680  30.9856800  35.2599030
  59.5729470  31.3241770  35.2817790  58.7096310  30.2636210  34.6323310
  65.6573030  29.5160470  47.9665230  65.0575020  29.5753030  47.2229150
  65.7866930  28.5765450  48.0962080  66.8974480  27.2578290  33.3034940
  66.0667440  27.3254940  33.7742170  67.0746310  28.1482410  33.0001800
  66.3530940  24.0025770  35.8069140  67.1149850  24.5722420  35.9128830
  66.3685310  23.4352970  36.5777450  67.3590910  24.8575870  40.6511070
  67.7299740  24.0743190  40.2447040  67.9992840  25.5464970  40.4728370
  64.3424670  26.2412450  46.0641390  63.5284510  26.6709610  46.3267180
  64.7498870  26.8530860  45.4510440  66.4050110  24.2960140  32.9641660
  66.6798950  25.2039020  32.8360880  66.2160850  24.2322670  33.9003650
  62.8025720  17.3204990  34.2595290  63.2210600  17.1335970  33.4191950
  62.4961780  16.4684040  34.5698220  66.3015450  22.2329130  37.9571090
  65.9259050  21.4657060  37.5252380  65.5718570  22.6151830  38.4446020
  65.6915070  21.3800650  47.5910610  65.4601160  21.1513400  46.6908560
  65.9519620  22.3000200  47.5455500  64.1303140  16.6057080  50.3690310
  65.0073320  16.6140480  50.7524310  64.1423980  15.8687920  49.7582660
  65.5766410  20.4586620  41.2578330  66.1003890  19.9649270  40.6268500
  66.1625830  20.5936980  42.0025900  65.7556130  20.5426490  44.7797880
  64.8058840  20.5090030  44.8942870  65.9369140  21.4526600  44.5447650
  51.2574730  14.8467500  32.9299160  51.9802860  15.3876440  33.2480380
  51.5299250  14.5730920  32.0540700  65.0666380  19.7159970  37.1970740
  65.5625500  19.4830840  37.9819620  64.8682450  18.8771810  36.7808380
  66.4953540  18.3520920  39.7308420  66.3852820  18.1976960  40.6690690
  67.2561130  17.8241860  39.4883830  64.8419260  14.2915050  46.1891420
  65.4791480  14.9049190  46.5550610  64.9894150  14.3275710  45.2440650
  67.3843810  16.1828840  32.9714560  68.3093120  16.0510020  32.7632850
  67.3619600  16.2621660  33.9251010  67.4582300  16.9539500  35.5971270
  66.6633800  16.8884620  36.1264180  67.6625580  17.8890140  35.5856620
  64.4000720  30.9931050  39.5909660  64.9959790  30.6715620  38.9144080
  64.6578870  30.5202870  40.3822930  58.2123740  15.4441240  49.0966520
  58.1512630  16.0363070  49.8461930  59.1524120  15.3367200  48.9516780
  60.8498300  15.1011300  48.7358810  61.4638710  15.4190590  48.0739890
  61.3947860  14.6159890  49.3554670  67.2673480  31.0002930  46.1420650
  66.7731760  31.3971800  45.4247780  66.6586770  30.3752140  46.5357930
  51.3719560  13.7805560  48.8497870  51.9202550  13.5993610  48.0863980
  51.4374870  12.9899670  49.3854180  61.5906340  13.6643440  45.0628100
  60.7166180  13.9978550  44.8601030  61.4817090  13.1916620  45.8879970
  62.4978320  15.8714310  46.4469820  62.1691680  15.0566070  46.0671550
  63.4460620  15.8284120  46.3235510  64.9512930  31.6426350  43.4207390
  64.4915900  32.3942160  43.0465410  64.3225390  30.9232820  43.3622190
  58.1204150  30.8423080  43.4224500  58.4081960  30.5877380  42.5457510
  58.6327370  30.2900440  44.0130070  59.3381160  14.5813280  44.0021010
  58.5552950  15.0558780  44.2817770  59.0444090  13.6768110  43.8934190
  63.8902230  15.2836380  42.0470100  64.3310320  15.2281480  41.1991700
  63.6209820  16.1994390  42.1180280  65.7540800  14.9151620  40.0578920
  65.6929200  13.9712840  39.9109940  66.5332830  15.0231710  40.6032380
  57.2235380  17.0000030  39.5137040  56.4109890  16.6256920  39.1732920
  57.7277020  16.2445110  39.8158230  61.7260360  13.6642480  40.7520110
  62.3289730  14.2362690  41.2268630  60.9853350  14.2281920  40.5294010
  64.8694960  14.0664040  36.0260390  65.0645590  14.9647490  36.2927820
  64.0824830  13.8351120  36.5193340  55.2484560  15.1499950  38.1182090
  54.6187300  14.4487260  38.2852220  54.7089700  15.9104080  37.9015250
  66.4221570  31.3064750  37.7866950  66.5973760  30.6202490  37.1427870
  65.7243140  31.8311800  37.3943620  55.3740120  14.4283930  50.5534580
  55.0924390  14.9317530  49.7895400  55.7559820  13.6305680  50.1876710
  54.2649220  31.6959590  35.3402260  54.9968040  31.4118870  34.7926150
  54.5242890  31.4572870  36.2301640  61.9755580  13.8437510  51.1315050
  61.8621030  14.1632120  52.0266570  62.7925320  14.2450020  50.8352330
  64.7554070  30.9909040  50.6133740  65.5479390  30.4958270  50.4059700
  65.0487220  31.6699180  51.2209350  60.8813730  21.8629980  21.4949790
  60.8007780  20.9484590  21.2241500  60.4678150  22.3597050  20.7889500
  59.0131770  23.6409000  23.3759060  58.2373870  23.1609440  23.6657630
  59.6644700  22.9614650  23.2015220  53.0297600  23.9528810  24.2534820
  52.1982480  23.6977520  24.6531330  53.6378580  24.0239580  24.9892740
  63.0339200  28.0469190  22.1558190  62.5720730  27.2756430  22.4845360
  63.8464750  28.0735260  22.6610640  53.0098860  27.9868900  24.4492840
  53.3126900  27.0966640  24.2703060  53.7542450  28.5439120  24.2215090
  51.4389550  18.9130700  18.0377210  50.5506250  19.2546670  17.9357090
  51.7230740  18.7131020  17.1458040  49.4022560  21.5136350  23.9216910
  49.9738670  20.7458550  23.9220550  49.4024100  21.8125110  23.0123520
  59.2602510  30.3327200  21.7762180  58.6413950  30.7884700  21.2056620
  60.1154290  30.4878660  21.3751880  58.4540760  26.3166190  23.3829220
  58.3849040  25.3756130  23.2218350  59.2160620  26.4067600  23.9551790
  50.6447430  16.9220710  25.7085840  50.4650270  16.0246460  25.9888600
  50.2427510  17.4692580  26.3832790  59.4845930  19.1236570  23.6098150
  59.8610750  18.2508450  23.4971820  59.3865440  19.4595270  22.7188590
  53.6150940  17.4962200  19.0715590  53.7217690  18.3965930  19.3784350
  52.7043300  17.4480170  18.7810240  63.2670050  16.6187010  20.5426490
  64.0879670  16.1283580  20.5851970  63.3004130  17.2084670  21.2958330
  51.2634100  19.4181210  24.3168180  51.9444210  19.6819580  24.9355580
  50.9482150  18.5782080  24.6506190  55.4558670  20.4648570  23.4040770
  55.9636890  20.9629540  24.0445790  55.9871910  19.6883770  23.2280130
  67.5569600  18.6353760  27.1070120  66.8521770  19.0235470  26.5885230
  67.8227520  19.3304050  27.7091050  53.7394770  15.1047130  27.6704190
  53.7413210  15.6219520  26.8650090  52.9099080  14.6277310  27.6474120
  60.1265860  25.2166440  19.1694090  59.5083130  25.6815890  18.6056810
  60.6389110  25.9093920  19.5863600  54.9897620  24.7442310  25.8477690
  54.6567000  25.3711230  26.4898760  55.1664300  25.2704190  25.0679360
  63.5031530  18.5587390  23.3154030  62.7987100  18.8472280  23.8957140
  63.8643690  19.3687500  22.9553590  53.4210100  16.8157090  25.6774640
  53.7626910  17.6599140  25.3828510  52.4825910  16.9640830  25.7939980
  54.2016720  26.7123110  27.6626870  54.8190720  27.3874190  27.3811320
  53.3409840  27.1211090  27.5714370  49.4949060  25.9022970  16.5433720
  49.1177040  26.3910070  15.8118620  49.7522130  26.5748250  17.1740250
  65.1194310  28.1762520  25.5781510  64.4357830  28.8461630  25.5698180
  65.6588600  28.3743170  24.8126370  66.5718450  18.0042180  23.7063240
  65.6243360  18.0381160  23.8378670  66.8968440  18.8181130  24.0912600
  57.1037990  14.3039360  22.0019230  57.4112970  13.7486250  21.2854730
  56.1738690  14.4383820  21.8192220  62.6553050  30.0206650  24.2926690
  62.6680210  29.6168940  23.4248950  62.1028270  30.7953940  24.1888120
  63.9498470  26.7422870  19.3816860  63.8394800  25.7997200  19.5066280
  63.9466720  27.1038510  20.2679620  62.0538490  24.9236490  25.6209300
  62.4707280  24.7096600  24.7862760  62.7778310  25.1809280  26.1917920
  59.4918750  22.3688190  18.7379350  58.5648030  22.3025570  18.9667820
  59.6443570  23.3068320  18.6234590  59.4787830  18.6405190  15.7346510
  58.5391500  18.8019150  15.8198970  59.7971090  19.3590870  15.1882500
  66.0000590  23.3223710  25.7125540  65.1719220  23.3916800  25.2375670
  66.5951070  23.9078020  25.2441370  63.5216040  23.9308490  19.2414600
  62.9028460  23.5928040  18.5940900  63.5040490  23.2868250  19.9493790
  62.9642600  20.1093030  26.6580410  62.5513780  20.9346740  26.9120400
  62.2318550  19.5238070  26.4656770  55.0975390  22.8952930  21.5199080
  54.6932390  22.1830180  21.0244980  55.1838510  22.5506170  22.4087120
  55.5657090  26.5820490  23.6838290  55.2685380  25.9765960  23.0046070
  56.5156910  26.6197800  23.5727650  53.8104010  19.6696140  25.2998120
  54.3618600  19.7791480  24.5251370  54.3247520  20.0433740  26.0153350
  63.6542700  30.1552360  27.3461390  63.1773260  30.9624550  27.1534000
  62.9704490  29.5030690  27.4987600  61.6980740  23.1695300  16.2487350
  62.1374020  22.3317730  16.1025170  62.4109160  23.8024700  16.3351490
  59.8076120  28.1091370  20.2168590  60.2472030  28.8515700  19.8023980
  59.7463010  28.3517940  21.1407550  55.2827090  29.1337200  31.1188610
  55.2542520  29.5380150  30.2517040  55.1192060  28.2047560  30.9560210
  65.2797880  14.4238110  14.5628390  64.9670540  14.5164940  15.4627460
  66.0410350  15.0019140  14.5125820  51.7980020  21.7897910  19.0205730
  51.6777620  22.5160000  18.4087000  51.4880910  21.0200820  18.5433640
  67.2341910  29.9164300  32.4152780  67.7101630  30.3947190  33.0941860
  67.8549070  29.8481790  31.6898280  49.4365390  24.9613050  24.8274370
  49.5145810  25.0961820  23.8830090  50.0507070  24.2528940  25.0202490
  50.6813020  26.6613240  21.2380550  50.2741100  26.8027830  20.3834150
  51.5726030  26.3773400  21.0351760  66.6375160  27.1077150  29.5752790
  66.7638220  26.8689030  28.6569970  66.6796540  26.2761690  30.0474870
  60.4991900  30.8105150  28.1447600  61.0136570  30.7213160  28.9470030
  59.6560980  31.1564850  28.4375510  62.4746300  31.0960490  17.5731600
  62.3147440  30.8063430  18.4713430  62.3093010  30.3200620  17.0376830
  54.9534680  30.8759020  19.3503220  54.7777160  29.9594560  19.1371020
  54.0990420  31.2346310  19.5901020  62.1772430  28.6048050  16.1329600
  61.4837590  28.6025340  15.4731880  62.9195290  28.1807370  15.7023770
  61.7422360  30.2310760  20.2078090  62.1979310  29.4500140  20.5216710
  62.0814880  30.9417580  20.7519270  66.4899170  19.1609610  30.5402530
  65.8743440  19.6689280  30.0117990  66.1695590  18.2607940  30.4828470
  54.2643680  15.1332980  22.4029400  53.8211830  15.9142520  22.0713920
  54.8228670  15.4562870  23.1100340  58.5513490  18.0001500  28.0064720
  58.0892860  18.2084520  28.8184660  58.1491600  17.1860850  27.7035390
  63.5518000  19.2210450  29.1361380  62.7011590  18.9216200  29.4570450
  63.3919790  19.4652460  28.2245200  60.6467710  20.7212200  31.2360170
  60.9721120  19.8875950  30.8962400  61.4348040  21.2440720  31.3838500
  57.3802500  14.7543680  17.2835230  56.7556680  14.7503550  18.0088540
  57.2932620  13.8874640  16.8871200  56.3019580  15.6780310  24.2619000
  56.5991910  16.5843140  24.1811020  56.8505140  15.1899090  23.6478570
  54.0557900  20.2566550  20.1310650  53.8298820  20.0403720  21.0357270
  53.2750430  20.6895010  19.7856620  61.2855660  20.2629920  18.7301300
  60.6864550  20.9865720  18.5464920  61.8335270  20.2006700  17.9477750
  56.4957110  21.1552130  30.7970920  56.4000710  20.2146860  30.6471320
  57.3389090  21.3767200  30.4018990  59.8920530  18.8993460  20.7604580
  60.2850100  19.2165660  19.9473270  60.2537380  18.0205340  20.8749100
  51.6267650  17.5665800  28.9504700  51.2331040  18.4141010  29.1577480
  50.9386050  16.9292170  29.1413340  58.2012700  17.6500770  32.0201440
  57.5111020  17.4572970  32.6547530  58.9445000  17.9335410  32.5525740
  48.9284700  15.4894260  22.9834780  48.6397750  16.0597120  23.6959760
  49.6730460  15.0098710  23.3466010  49.1154930  19.4314380  14.1937500
  49.0329600  20.3745140  14.3352490  48.7637990  19.2889290  13.3149850
  60.4775670  21.4899210  24.8555360  59.7456790  21.9986020  25.2045460
  60.0800010  20.6729190  24.5544140  56.9153060  18.1653410  23.2607850
  56.9189120  17.7243360  22.4112390  57.8104180  18.4870740  23.3679670
  52.7655440  18.0479900  22.2202060  52.4255490  18.5255130  22.9769110
  52.0032760  17.5945020  21.8603160  56.9773210  19.1665490  16.2514610
  57.0986030  19.1251970  17.2000430  56.5921720  20.0289640  16.0961340
  60.9401580  16.9432890  24.2678300  60.9574320  17.3941540  25.1120150
  60.6917160  16.0438530  24.4811740  55.9894710  21.4766630  15.6497910
  55.4211610  21.0284880  15.0233820  56.6983710  21.8359410  15.1163060
  64.3672330  14.3565070  30.1064680  64.6918100  13.6254730  30.6322660
  64.4028840  14.0378710  29.2045670  57.2161030  22.2255190  25.0073260
  57.5831160  21.7513760  25.7534600  57.0266090  23.0996760  25.3481600
  50.0801520  16.9698880  21.1366730  49.7948440  16.6054550  21.9745350
  50.0180380  16.2379340  20.5229870  55.0060400  21.2663830  27.3257470
  54.7017470  22.1455810  27.5507830  55.9606860  21.3263620  27.3614910
  53.5342190  25.4724820  17.9224320  52.7604450  24.9322440  17.7623040
  54.2636820  24.9531430  17.5842080  64.2930170  24.4690180  23.7150710
  65.0129290  24.9645470  23.3246820  64.0911990  23.7908070  23.0704580
  59.7540110  15.8628140  17.8580100  58.9404720  15.3641310  17.7825410
  59.5602060  16.7026390  17.4416450  59.6748970  24.5399240  29.6019710
  59.6086280  23.6194910  29.3477300  59.0454110  24.6374680  30.3164350
  62.4688500  20.2347790  16.1542260  63.3568120  20.5465020  15.9793600
  62.4393590  19.3620040  15.7622840  53.5779590  25.1405200  21.5603130
  54.0958260  24.3373460  21.5060020  53.1263610  25.0784340  22.4019960
  58.4649090  26.4071480  16.8330430  58.8064790  27.1513710  16.3373750
  57.6361800  26.7202600  17.1955260  54.2637250  22.5650810  31.3568380
  53.9637390  22.7107990  30.4596200  55.0348490  22.0056100  31.2641770
  59.6065700  27.3619810  29.3523510  59.6210240  26.4300770  29.1342420
  58.8990800  27.4479570  29.9913280  64.7402770  21.5459630  15.6222120
  64.6566490  21.9773850  14.7718560  65.4596960  22.0057980  16.0548940
  65.8176910  24.0027150  28.6992090  65.0925100  24.5955930  28.5021480
  66.3452370  23.9950690  27.9005460  65.7690020  28.4001890  18.3504250
  65.1266180  27.7457510  18.6247970  65.3820680  28.8056980  17.5744920
  61.3476500  25.7287320  22.1975940  61.7000320  25.1315450  21.5377310
  60.4638830  25.4031550  22.3684190  57.4339780  26.4885010  19.6046350
  58.1210910  27.0354220  19.9853940  56.6472200  27.0325740  19.6395960
  49.5732180  22.1057830  15.0963430  50.4427030  22.3882630  15.3799350
  49.0822500  22.9193700  14.9812240  56.7366990  23.4931040  19.2171710
  57.1929770  24.3036290  19.4431900  56.3855200  23.1754180  20.0490200
  59.0399600  29.0037380  26.4464010  59.6841820  29.2096760  27.1237430
  59.4029040  28.2425780  25.9934860  52.6378770  13.8368690  19.6894230
  52.5093400  13.8286590  20.6379150  51.8140790  14.1751780  19.3385240
  60.3131680  27.0069730  25.1641460  60.9553910  26.3062890  25.2773630
  60.8381030  27.7868170  24.9838350  64.1587400  27.2918350  14.8880600
  63.9324980  26.5748790  15.4805240  63.7683600  27.0430790  14.0502350
  62.0869300  27.8064630  28.3677520  62.4225540  28.3931320  29.0455440
  61.1669640  27.6757340  28.5975310  49.9403430  31.3185210  15.6625060
  50.3001070  31.9174550  15.0082330  49.7995770  31.8645100  16.4360090
  49.6372700  15.5959810  29.1500930  48.9231220  15.7956730  29.7553540
  50.0567740  14.8199380  29.5215730  63.7403650  25.2090290  16.5494760
  63.4525350  25.6702980  17.3372640  64.5355820  24.7488060  16.8178980
  49.9245290  29.5840070  30.1367460  50.0336410  28.6434810  29.9962850
  49.2725850  29.8494820  29.4881190  57.9157880  27.8555960  31.5365580
  57.5954750  27.1365200  32.0811270  57.2416240  28.5311030  31.6101640
  55.9572050  28.7016410  16.4798730  55.9482150  29.4346100  15.8643240
  55.0370410  28.4547990  16.5725690  51.5578690  23.9231300  17.2245490
  50.9506640  24.6630200  17.2340790  52.0328040  24.0130660  16.3983690
  61.1311480  18.0882120  26.9002380  61.4992300  17.2677330  27.2281950
  60.2709680  18.1484010  27.3158030  64.4973510  17.0439060  17.7089940
  63.8686670  17.1484730  16.9948170  64.0025430  17.2635840  18.4983820
  58.9431650  28.7644650  15.1423920  59.0443630  28.5608640  14.2125900
  58.0433390  28.5102930  15.3471700  56.4657540  19.3225010  19.1247820
  55.7573690  19.7911350  19.5661430  56.7502020  18.6647020  19.7593010
  58.0913470  20.7421710  27.1240350  58.5898720  21.2167530  27.7892200
  58.2336420  19.8185230  27.3310380  60.4972970  16.0475670  20.5643610
  60.3740750  16.0661800  19.6153120  61.4457530  16.0954610  20.6842010
  57.5849760  31.2830970  19.8371590  57.8391260  31.2452360  18.9150960
  56.6362240  31.1564300  19.8299840  54.6692560  17.6310090  16.4998530
  55.5183090  18.0680240  16.4338720  54.3023830  17.9430350  17.3270590
  65.2980330  16.9589670  27.9668740  64.7953930  17.6995070  28.3062550
  66.1136990  17.3473670  27.6505530  63.5902340  22.2022850  21.4130100
  62.6492480  22.2173080  21.5877790  63.9046410  21.4158810  21.8590400
  53.5683980  23.8842450  14.9734060  54.3347250  23.7723810  15.5359490
  53.6458670  23.1880420  14.3210830  52.2630740  21.3167520  15.6566950
  52.3434330  20.3695030  15.7684350  53.1550490  21.6474400  15.7627610
  65.5927920  29.3731700  23.0884360  65.7175340  30.1962870  23.5608170
  66.4593480  29.1622430  22.7408510  53.0645450  31.4662910  22.7601490
  53.8007930  30.9178370  23.0310060  53.4486370  32.3318920  22.6207480
  49.9490930  27.5336480  18.6343000  49.0230710  27.7757620  18.6248410
  50.4147360  28.3610740  18.5127750  52.0703730  30.6508980  31.9487070
  52.8716460  30.9721030  32.3622470  51.5555550  30.2904560  32.6706980
  56.1747760  30.6393220  14.5827060  56.9676370  30.9282050  14.1308850
  55.6552110  30.2085390  13.9039540  60.9068360  26.7588850  31.8962480
  60.3006520  26.7820450  31.1558230  60.6022470  26.0271890  32.4329730
  62.3368730  30.4869140  30.5071890  63.2890480  30.4027160  30.4572130
  62.1896950  31.1510850  31.1805680  65.2277930  29.8663350  16.0063800
  64.9419440  29.4528490  15.1917980  65.0297480  30.7951060  15.8864320
  56.6925160  25.8596630  14.4469410  56.5875800  25.2448980  15.1730790
  56.5249380  25.3362520  13.6632420  56.8439480  24.5453430  30.4258640
  56.0785150  25.1138430  30.3413310  57.0255440  24.2529640  29.5326870
  59.9327890  24.9216660  15.0511400  59.3837990  25.3685960  15.6954140
  60.5547150  24.4165910  15.5749070  63.9862830  26.2758760  30.9833660
  64.7272300  26.6134520  30.4801120  63.2235510  26.4450820  30.4303430
  55.6003010  23.8807580  16.9476700  56.0219430  23.7147450  17.7908090
  55.7253850  23.0707810  16.4531840  53.7630430  19.8604130  29.7547680
  53.2326890  19.3695080  29.1271020  54.4318500  20.2888330  29.2205610
  58.1130650  22.9045190  14.1953800  58.6336310  22.1894210  13.8294950
  58.7599050  23.5431060  14.4954310  62.6608490  24.3273590  29.5188870
  63.0749510  24.4818670  30.3679290  61.7259490  24.4528810  29.6814650
  63.1330660  21.6669750  31.5228020  63.7151430  20.9122070  31.4348500
  63.3092430  22.1977190  30.7459500  54.2502730  16.8266500  29.8344970
  54.1559600  16.2087250  29.1095840  53.6700120  17.5532790  29.6074880
  57.0164170  15.3839740  26.8672360  56.5681470  15.4064000  26.0217910
  56.3829370  14.9858760  27.4642660  57.4223720  24.2794070  27.4884800
  57.8411830  25.1226800  27.3161040  56.5032350  24.4166110  27.2591580
  59.7587620  22.0110250  28.8722640  59.8783830  21.4151390  29.6117480
  60.6181620  22.0479940  28.4523940  62.0975520  22.5647440  27.4485150
  61.5710740  23.0890060  26.8450290  62.4406860  23.1974830  28.0794880
  54.4961910  19.9540810  13.8934860  54.2950970  19.0908170  14.2548200
  54.3253960  19.8674170  12.9556460  55.2731140  30.5847080  28.6042530
  54.7352230  31.3093140  28.2851230  55.5265100  30.1077420  27.8139870
  56.5256390  18.5531600  30.1298460  57.1156080  18.2447450  30.8176280
  55.7076630  18.0811350  30.2858360  61.3449820  18.1697410  30.3631480
  60.6565340  17.5078950  30.2981470  62.0655840  17.7235680  30.8079940
  61.9750220  14.7649040  16.4221740  62.2552510  13.9216940  16.7781160
  61.2015950  14.9972150  16.9360490  53.2944710  17.0541430  13.8812740
  53.5970610  17.0608860  12.9731890  54.0339300  16.7039290  14.3780400
  58.1293350  31.8198290  28.8629180  58.0552050  32.7233430  29.1701550
  57.2272190  31.5010190  28.8351250  56.5129640  15.9976050  14.8668940
  56.1651640  15.3200040  14.2871390  56.7142410  15.5365560  15.6812330
  58.6778680  30.9856800  16.4855540  59.5729470  31.3241770  16.5074300
  58.7096310  30.2636210  15.8579820  52.3174840  26.3583850  14.7142540
  52.7549710  26.9013520  15.3700120  52.8022570  25.5330800  14.7238880
  49.5320640  29.1472880  22.1662800  49.8623650  28.2793940  21.9341440
  49.9611640  29.3531400  22.9967760  54.1282560  27.4781890  19.8264770
  53.8278100  27.3546860  20.7268680  54.0220050  26.6190480  19.4180500
  50.0210850  30.0143470  24.9044430  49.5841840  30.1944270  25.7368580
  50.5888530  30.7718090  24.7626150  65.6573030  29.5160470  29.1921740
  65.0575020  29.5753030  28.4485660  65.7866930  28.5765450  29.3218590
  66.8974480  27.2578290  14.5291450  66.0667440  27.3254940  14.9998680
  67.0746310  28.1482410  14.2258310  66.3530940  24.0025770  17.0325650
  67.1149850  24.5722420  17.1385340  66.3685310  23.4352970  17.8033960
  49.8535280  22.5263700  21.2633310  49.1984120  22.2575340  20.6193010
  50.6913230  22.4168180  20.8135290  67.3590910  24.8575870  21.8767580
  67.7299740  24.0743190  21.4703550  67.9992840  25.5464970  21.6984880
  64.3424670  26.2412450  27.2897900  63.5284510  26.6709610  27.5523690
  64.7498870  26.8530860  26.6766950  66.4050110  24.2960140  14.1898170
  66.6798950  25.2039020  14.0617390  66.2160850  24.2322670  15.1260160
  62.8025720  17.3204990  15.4851800  63.2210600  17.1335970  14.6448460
  62.4961780  16.4684040  15.7954730  66.3015450  22.2329130  19.1827600
  65.9259050  21.4657060  18.7508890  65.5718570  22.6151830  19.6702530
  50.8911210  22.9116270  25.8036650  51.2584250  22.8243670  26.6832670
  50.3222030  22.1482820  25.7043510  65.6915070  21.3800650  28.8167120
  65.4601160  21.1513400  27.9165070  65.9519620  22.3000200  28.7712010
  50.4427210  19.8225360  29.7095070  49.5483260  19.7892120  30.0488780
  50.9824760  20.0212150  30.4746320  64.1303140  16.6057080  31.5946820
  65.0073320  16.6140480  31.9780820  64.1423980  15.8687920  30.9839170
  49.0673360  19.7362630  17.2058640  48.1637440  19.9992830  17.0310300
  49.5513980  20.0073800  16.4258600  65.5766410  20.4586620  22.4834840
  66.1003890  19.9649270  21.8525010  66.1625830  20.5936980  23.2282410
  65.7556130  20.5426490  26.0054390  64.8058840  20.5090030  26.1199380
  65.9369140  21.4526600  25.7704160  51.6100570  18.7928170  15.1153020
  52.3192270  18.3711390  14.6300300  50.8940510  18.8603400  14.4836370
  51.2574730  14.8467500  14.1555670  51.9802860  15.3876440  14.4736890
  51.5299250  14.5730920  13.2797210  65.0666380  19.7159970  18.4227250
  65.5625500  19.4830840  19.2076130  64.8682450  18.8771810  18.0064890
  50.9466920  14.0973690  24.0578290  51.5943110  13.5471070  23.6173450
  51.3668760  14.3516840  24.8794100  66.4953540  18.3520920  20.9564930
  66.3852820  18.1976960  21.8947200  67.2561130  17.8241860  20.7140340
  64.8419260  14.2915050  27.4147930  65.4791480  14.9049190  27.7807120
  64.9894150  14.3275710  26.4697160  67.3843810  16.1828840  14.1971070
  68.3093120  16.0510020  13.9889360  67.3619600  16.2621660  15.1507520
  67.4582300  16.9539500  16.8227780  66.6633800  16.8884620  17.3520690
  67.6625580  17.8890140  16.8113130  64.4000720  30.9931050  20.8166170
  64.9959790  30.6715620  20.1400590  64.6578870  30.5202870  21.6079440
  50.6998920  14.2529360  26.8003610  50.3513740  14.7093180  27.5661790
  50.3686620  13.3586490  26.8826040  56.0069320  28.9808550  26.5666520
  55.7660680  29.2483110  25.6797040  56.9471960  29.1514280  26.6217380
  58.2123740  15.4441240  30.3223030  58.1512630  16.0363070  31.0718440
  59.1524120  15.3367200  30.1773290  60.8498300  15.1011300  29.9615320
  61.4638710  15.4190590  29.2996400  61.3947860  14.6159890  30.5811180
  67.2673480  31.0002930  27.3677160  66.7731760  31.3971800  26.6504290
  66.6586770  30.3752140  27.7614440  51.3719560  13.7805560  30.0754380
  51.9202550  13.5993610  29.3120490  51.4374870  12.9899670  30.6110690
  52.1451320  30.3711210  28.0854580  51.5511640  30.2395910  28.8244620
  52.1375160  29.5349350  27.6196680  61.5906340  13.6643440  26.2884610
  60.7166180  13.9978550  26.0857540  61.4817090  13.1916620  27.1136480
  62.4978320  15.8714310  27.6726330  62.1691680  15.0566070  27.2928060
  63.4460620  15.8284120  27.5492020  64.9512930  31.6426350  24.6463900
  64.4915900  32.3942160  24.2721920  64.3225390  30.9232820  24.5878700
  51.7763550  27.7369590  27.0362620  51.0497610  27.1174880  26.9688570
  51.8372700  28.1310200  26.1660700  55.3808650  29.9514590  23.8212030
  55.8973670  29.3401950  23.2960290  56.0306030  30.4543370  24.3123040
  58.1204150  30.8423080  24.6481010  58.4081960  30.5877380  23.7714020
  58.6327370  30.2900440  25.2386580  59.3381160  14.5813280  25.2277520
  58.5552950  15.0558780  25.5074280  59.0444090  13.6768110  25.1190700
  63.8902230  15.2836380  23.2726610  64.3310320  15.2281480  22.4248210
  63.6209820  16.1994390  23.3436790  65.7540800  14.9151620  21.2835430
  65.6929200  13.9712840  21.1366450  66.5332830  15.0231710  21.8288890
  50.0593550  31.0543980  20.2459380  49.8915590  30.4214660  20.9441270
  49.1928060  31.2603380  19.8953570  50.6821570  14.8860760  17.7491240
  51.4400930  14.9989640  17.1755270  50.2198740  15.7229960  17.7034670
  57.2235380  17.0000030  20.7393550  56.4109890  16.6256920  20.3989430
  57.7277020  16.2445110  21.0414740  61.7260360  13.6642480  21.9776620
  62.3289730  14.2362690  22.4525140  60.9853350  14.2281920  21.7550520
  64.8694960  14.0664040  17.2516900  65.0645590  14.9647490  17.5184330
  64.0824830  13.8351120  17.7449850  51.6656250  29.7477210  17.6909520
  51.1403870  30.1285240  16.9871480  51.5900830  30.3727980  18.4119230
  53.0546720  15.4124810  16.2893210  53.5839480  14.6254610  16.1601160
  53.6875040  16.0916000  16.5228740  55.2484560  15.1499950  19.3438600
  54.6187300  14.4487260  19.5108730  54.7089700  15.9104080  19.1271760
  58.1876510  31.7639180  32.0149210  59.1143820  31.5283450  32.0585170
  58.1726940  32.5911180  31.5335240  66.4221570  31.3064750  19.0123460
  66.5973760  30.6202490  18.3684380  65.7243140  31.8311800  18.6200130
  55.3740120  14.4283930  31.7791090  55.0924390  14.9317530  31.0151910
  55.7559820  13.6305680  31.4133220  54.2649220  31.6959590  16.5658770
  54.9968040  31.4118870  16.0182660  54.5242890  31.4572870  17.4558150
  53.4264010  27.8124320  16.5705100  52.7972890  28.2809420  17.1190930
  53.5411840  26.9673540  17.0051290  61.9755580  13.8437510  32.3571560
  61.8621030  14.1632120  33.2523080  62.7925320  14.2450020  32.0608840
  64.7554070  30.9909040  31.8390250  65.5479390  30.4958270  31.6316210
  65.0487220  31.6699180  32.4465860  60.8813730  21.8629980   2.7206300
  60.8007780  20.9484590   2.4498010  60.4678150  22.3597050   2.0146010
  59.0131770  23.6409000   4.6015570  58.2373870  23.1609440   4.8914140
  59.6644700  22.9614650   4.4271730  53.0297600  23.9528810   5.4791330
  52.1982480  23.6977520   5.8787840  53.6378580  24.0239580   6.2149250
  63.0339200  28.0469190   3.3814700  62.5720730  27.2756430   3.7101870
  63.8464750  28.0735260   3.8867150  53.0098860  27.9868900   5.6749350
  53.3126900  27.0966640   5.4959570  53.7542450  28.5439120   5.4471600
  49.4022560  21.5136350   5.1473420  49.9738670  20.7458550   5.1477060
  49.4024100  21.8125110   4.2380030  59.2602510  30.3327200   3.0018690
  58.6413950  30.7884700   2.4313130  60.1154290  30.4878660   2.6008390
  58.4540760  26.3166190   4.6085730  58.3849040  25.3756130   4.4474860
  59.2160620  26.4067600   5.1808300  50.6447430  16.9220710   6.9342350
  50.4650270  16.0246460   7.2145110  50.2427510  17.4692580   7.6089300
  59.4845930  19.1236570   4.8354660  59.8610750  18.2508450   4.7228330
  59.3865440  19.4595270   3.9445100  63.2670050  16.6187010   1.7683000
  64.0879670  16.1283580   1.8108480  63.3004130  17.2084670   2.5214840
  51.2634100  19.4181210   5.5424690  51.9444210  19.6819580   6.1612090
  50.9482150  18.5782080   5.8762700  55.4558670  20.4648570   4.6297280
  55.9636890  20.9629540   5.2702300  55.9871910  19.6883770   4.4536640
  67.5569600  18.6353760   8.3326630  66.8521770  19.0235470   7.8141740
  67.8227520  19.3304050   8.9347560  53.7394770  15.1047130   8.8960700
  53.7413210  15.6219520   8.0906600  52.9099080  14.6277310   8.8730630
  54.9897620  24.7442310   7.0734200  54.6567000  25.3711230   7.7155270
  55.1664300  25.2704190   6.2935870  63.5031530  18.5587390   4.5410540
  62.7987100  18.8472280   5.1213650  63.8643690  19.3687500   4.1810100
  53.4210100  16.8157090   6.9031150  53.7626910  17.6599140   6.6085020
  52.4825910  16.9640830   7.0196490  54.2016720  26.7123110   8.8883380
  54.8190720  27.3874190   8.6067830  53.3409840  27.1211090   8.7970880
  65.1194310  28.1762520   6.8038020  64.4357830  28.8461630   6.7954690
  65.6588600  28.3743170   6.0382880  66.5718450  18.0042180   4.9319750
  65.6243360  18.0381160   5.0635180  66.8968440  18.8181130   5.3169110
  57.1037990  14.3039360   3.2275740  57.4112970  13.7486250   2.5111240
  56.1738690  14.4383820   3.0448730  62.6553050  30.0206650   5.5183200
  62.6680210  29.6168940   4.6505460  62.1028270  30.7953940   5.4144630
  62.0538490  24.9236490   6.8465810  62.4707280  24.7096600   6.0119270
  62.7778310  25.1809280   7.4174430  66.0000590  23.3223710   6.9382050
  65.1719220  23.3916800   6.4632180  66.5951070  23.9078020   6.4697880
  62.9642600  20.1093030   7.8836920  62.5513780  20.9346740   8.1376910
  62.2318550  19.5238070   7.6913280  55.0975390  22.8952930   2.7455590
  54.6932390  22.1830180   2.2501490  55.1838510  22.5506170   3.6343630
  55.5657090  26.5820490   4.9094800  55.2685380  25.9765960   4.2302580
  56.5156910  26.6197800   4.7984160  53.8104010  19.6696140   6.5254630
  54.3618600  19.7791480   5.7507880  54.3247520  20.0433740   7.2409860
  63.6542700  30.1552360   8.5717900  63.1773260  30.9624550   8.3790510
  62.9704490  29.5030690   8.7244110  54.6575520  26.3202180  11.5602600
  53.7604050  26.5442150  11.8076000  54.6828390  26.4437120  10.6114000
  53.4846740  23.1915500  10.1359970  53.3454510  24.0638300  10.5047370
  52.6028100  22.8488310   9.9907910  55.2827090  29.1337200  12.3445120
  55.2542520  29.5380150  11.4773550  55.1192060  28.2047560  12.1816720
  67.2341910  29.9164300  13.6409290  67.7101630  30.3947190  14.3198370
  67.8549070  29.8481790  12.9154790  49.4365390  24.9613050   6.0530880
  49.5145810  25.0961820   5.1086600  50.0507070  24.2528940   6.2459000
  66.6375160  27.1077150  10.8009300  66.7638220  26.8689030   9.8826480
  66.6796540  26.2761690  11.2731380  60.4991900  30.8105150   9.3704110
  61.0136570  30.7213160  10.1726540  59.6560980  31.1564850   9.6632020
  66.4899170  19.1609610  11.7659040  65.8743440  19.6689280  11.2374500
  66.1695590  18.2607940  11.7084980  49.4924910  26.0027220   8.5925340
  49.6555950  25.5332580   7.7744710  49.9577360  25.4950780   9.2574180
  54.2643680  15.1332980   3.6285910  53.8211830  15.9142520   3.2970430
  54.8228670  15.4562870   4.3356850  58.5513490  18.0001500   9.2321230
  58.0892860  18.2084520  10.0441170  58.1491600  17.1860850   8.9291900
  63.5518000  19.2210450  10.3617890  62.7011590  18.9216200  10.6826960
  63.3919790  19.4652460   9.4501710  60.6467710  20.7212200  12.4616680
  60.9721120  19.8875950  12.1218910  61.4348040  21.2440720  12.6095010
  56.3019580  15.6780310   5.4875510  56.5991910  16.5843140   5.4067530
  56.8505140  15.1899090   4.8735080  56.4957110  21.1552130  12.0227430
  56.4000710  20.2146860  11.8727830  57.3389090  21.3767200  11.6275500
  51.6267650  17.5665800  10.1761210  51.2331040  18.4141010  10.3833990
  50.9386050  16.9292170  10.3669850  58.2012700  17.6500770  13.2457950
  57.5111020  17.4572970  13.8804040  58.9445000  17.9335410  13.7782250
  48.9284700  15.4894260   4.2091290  48.6397750  16.0597120   4.9216270
  49.6730460  15.0098710   4.5722520  60.4775670  21.4899210   6.0811870
  59.7456790  21.9986020   6.4301970  60.0800010  20.6729190   5.7800650
  56.9153060  18.1653410   4.4864360  56.9189120  17.7243360   3.6368900
  57.8104180  18.4870740   4.5936180  52.7655440  18.0479900   3.4458570
  52.4255490  18.5255130   4.2025620  52.0032760  17.5945020   3.0859670
  60.9401580  16.9432890   5.4934810  60.9574320  17.3941540   6.3376660
  60.6917160  16.0438530   5.7068250  64.3672330  14.3565070  11.3321190
  64.6918100  13.6254730  11.8579170  64.4028840  14.0378710  10.4302180
  51.0663890  25.3778650  10.7521150  50.6818680  24.7372320  11.3504110
  51.3776080  26.0814770  11.3215880  57.2161030  22.2255190   6.2329770
  57.5831160  21.7513760   6.9791110  57.0266090  23.0996760   6.5738110
  50.0801520  16.9698880   2.3623240  49.7948440  16.6054550   3.2001860
  50.0180380  16.2379340   1.7486380  55.0060400  21.2663830   8.5513980
  54.7017470  22.1455810   8.7764340  55.9606860  21.3263620   8.5871420
  64.2930170  24.4690180   4.9407220  65.0129290  24.9645470   4.5503330
  64.0911990  23.7908070   4.2961090  59.6748970  24.5399240  10.8276220
  59.6086280  23.6194910  10.5733810  59.0454110  24.6374680  11.5420860
  53.5779590  25.1405200   2.7859640  54.0958260  24.3373460   2.7316530
  53.1263610  25.0784340   3.6276470  51.0624130  22.1066570   9.6985340
  50.7039070  22.7720420  10.2858680  50.7678690  21.2750120  10.0697960
  54.2637250  22.5650810  12.5824890  53.9637390  22.7107990  11.6852710
  55.0348490  22.0056100  12.4898280  59.6065700  27.3619810  10.5780020
  59.6210240  26.4300770  10.3598930  58.8990800  27.4479570  11.2169790
  65.8176910  24.0027150   9.9248600  65.0925100  24.5955930   9.7277990
  66.3452370  23.9950690   9.1261970  61.3476500  25.7287320   3.4232450
  61.7000320  25.1315450   2.7633820  60.4638830  25.4031550   3.5940700
  59.0399600  29.0037380   7.6720520  59.6841820  29.2096760   8.3493940
  59.4029040  28.2425780   7.2191370  60.3131680  27.0069730   6.3897970
  60.9553910  26.3062890   6.5030140  60.8381030  27.7868170   6.2094860
  62.0869300  27.8064630   9.5934030  62.4225540  28.3931320  10.2711950
  61.1669640  27.6757340   9.8231820  49.6372700  15.5959810  10.3757440
  48.9231220  15.7956730  10.9810050  50.0567740  14.8199380  10.7472240
  49.9245290  29.5840070  11.3623970  50.0336410  28.6434810  11.2219360
  49.2725850  29.8494820  10.7137700  57.9157880  27.8555960  12.7622090
  57.5954750  27.1365200  13.3067780  57.2416240  28.5311030  12.8358150
  61.1311480  18.0882120   8.1258890  61.4992300  17.2677330   8.4538460
  60.2709680  18.1484010   8.5414540  58.0913470  20.7421710   8.3496860
  58.5898720  21.2167530   9.0148710  58.2336420  19.8185230   8.5566890
  65.2980330  16.9589670   9.1925250  64.7953930  17.6995070   9.5319060
  66.1136990  17.3473670   8.8762040  63.5902340  22.2022850   2.6386610
  62.6492480  22.2173080   2.8134300  63.9046410  21.4158810   3.0846910
  65.5927920  29.3731700   4.3140870  65.7175340  30.1962870   4.7864680
  66.4593480  29.1622430   3.9665020  53.0645450  31.4662910   3.9858000
  53.8007930  30.9178370   4.2566570  53.4486370  32.3318920   3.8463990
  52.0703730  30.6508980  13.1743580  52.8716460  30.9721030  13.5878980
  51.5555550  30.2904560  13.8963490  60.9068360  26.7588850  13.1218990
  60.3006520  26.7820450  12.3814740  60.6022470  26.0271890  13.6586240
  62.3368730  30.4869140  11.7328400  63.2890480  30.4027160  11.6828640
  62.1896950  31.1510850  12.4062190  49.7901540  23.1382440  12.1179630
  50.2940560  22.5589720  12.6895860  49.0508960  23.4222670  12.6556000
  56.8439480  24.5453430  11.6515150  56.0785150  25.1138430  11.5669820
  57.0255440  24.2529640  10.7583380  63.9862830  26.2758760  12.2090170
  64.7272300  26.6134520  11.7057630  63.2235510  26.4450820  11.6559940
  51.8224620  21.2812030  13.0129700  51.8629960  20.9825900  13.9214930
  52.6770120  21.6819640  12.8537220  53.7630430  19.8604130  10.9804190
  53.2326890  19.3695080  10.3527530  54.4318500  20.2888330  10.4462120
  62.6608490  24.3273590  10.7445380  63.0749510  24.4818670  11.5935800
  61.7259490  24.4528810  10.9071160  63.1330660  21.6669750  12.7484530
  63.7151430  20.9122070  12.6605010  63.3092430  22.1977190  11.9716010
  54.2502730  16.8266500  11.0601480  54.1559600  16.2087250  10.3352350
  53.6700120  17.5532790  10.8331390  57.0164170  15.3839740   8.0928870
  56.5681470  15.4064000   7.2474420  56.3829370  14.9858760   8.6899170
  57.4223720  24.2794070   8.7141310  57.8411830  25.1226800   8.5417550
  56.5032350  24.4166110   8.4848090  59.7587620  22.0110250  10.0979150
  59.8783830  21.4151390  10.8373990  60.6181620  22.0479940   9.6780450
  62.0975520  22.5647440   8.6741660  61.5710740  23.0890060   8.0706800
  62.4406860  23.1974830   9.3051390  55.2731140  30.5847080   9.8299040
  54.7352230  31.3093140   9.5107740  55.5265100  30.1077420   9.0396380
  56.5256390  18.5531600  11.3554970  57.1156080  18.2447450  12.0432790
  55.7076630  18.0811350  11.5114870  61.3449820  18.1697410  11.5887990
  60.6565340  17.5078950  11.5237980  62.0655840  17.7235680  12.0336450
  58.1293350  31.8198290  10.0885690  58.0552050  32.7233430  10.3958060
  57.2272190  31.5010190  10.0607760  49.5320640  29.1472880   3.3919310
  49.8623650  28.2793940   3.1597950  49.9611640  29.3531400   4.2224270
  50.0210850  30.0143470   6.1300940  49.5841840  30.1944270   6.9625090
  50.5888530  30.7718090   5.9882660  65.6573030  29.5160470  10.4178250
  65.0575020  29.5753030   9.6742170  65.7866930  28.5765450  10.5475100
  49.8535280  22.5263700   2.4889820  49.1984120  22.2575340   1.8449520
  50.6913230  22.4168180   2.0391800  67.3590910  24.8575870   3.1024090
  67.7299740  24.0743190   2.6960060  67.9992840  25.5464970   2.9241390
  64.3424670  26.2412450   8.5154410  63.5284510  26.6709610   8.7780200
  64.7498870  26.8530860   7.9023460  50.8911210  22.9116270   7.0293160
  51.2584250  22.8243670   7.9089180  50.3222030  22.1482820   6.9300020
  65.6915070  21.3800650  10.0423630  65.4601160  21.1513400   9.1421580
  65.9519620  22.3000200   9.9968520  50.4427210  19.8225360  10.9351580
  49.5483260  19.7892120  11.2745290  50.9824760  20.0212150  11.7002830
  64.1303140  16.6057080  12.8203330  65.0073320  16.6140480  13.2037330
  64.1423980  15.8687920  12.2095680  65.5766410  20.4586620   3.7091350
  66.1003890  19.9649270   3.0781520  66.1625830  20.5936980   4.4538920
  65.7556130  20.5426490   7.2310900  64.8058840  20.5090030   7.3455890
  65.9369140  21.4526600   6.9960670  50.9466920  14.0973690   5.2834800
  51.5943110  13.5471070   4.8429960  51.3668760  14.3516840   6.1050610
  66.4953540  18.3520920   2.1821440  66.3852820  18.1976960   3.1203710
  67.2561130  17.8241860   1.9396850  64.8419260  14.2915050   8.6404440
  65.4791480  14.9049190   9.0063630  64.9894150  14.3275710   7.6953670
  50.6998920  14.2529360   8.0260120  50.3513740  14.7093180   8.7918300
  50.3686620  13.3586490   8.1082550  52.3063290  27.4248960  12.1913310
  52.2632920  27.0541870  13.0727770  52.4374300  28.3626530  12.3315130
  56.0069320  28.9808550   7.7923030  55.7660680  29.2483110   6.9053550
  56.9471960  29.1514280   7.8473890  58.2123740  15.4441240  11.5479540
  58.1512630  16.0363070  12.2974950  59.1524120  15.3367200  11.4029800
  60.8498300  15.1011300  11.1871830  61.4638710  15.4190590  10.5252910
  61.3947860  14.6159890  11.8067690  67.2673480  31.0002930   8.5933670
  66.7731760  31.3971800   7.8760800  66.6586770  30.3752140   8.9870950
  51.3719560  13.7805560  11.3010890  51.9202550  13.5993610  10.5377000
  51.4374870  12.9899670  11.8367200  52.1451320  30.3711210   9.3111090
  51.5511640  30.2395910  10.0501130  52.1375160  29.5349350   8.8453190
  61.5906340  13.6643440   7.5141120  60.7166180  13.9978550   7.3114050
  61.4817090  13.1916620   8.3392990  62.4978320  15.8714310   8.8982840
  62.1691680  15.0566070   8.5184570  63.4460620  15.8284120   8.7748530
  64.9512930  31.6426350   5.8720410  64.4915900  32.3942160   5.4978430
  64.3225390  30.9232820   5.8135210  51.7763550  27.7369590   8.2619130
  51.0497610  27.1174880   8.1945080  51.8372700  28.1310200   7.3917210
  55.3808650  29.9514590   5.0468540  55.8973670  29.3401950   4.5216800
  56.0306030  30.4543370   5.5379550  58.1204150  30.8423080   5.8737520
  58.4081960  30.5877380   4.9970530  58.6327370  30.2900440   6.4643090
  59.3381160  14.5813280   6.4534030  58.5552950  15.0558780   6.7330790
  59.0444090  13.6768110   6.3447210  63.8902230  15.2836380   4.4983120
  64.3310320  15.2281480   3.6504720  63.6209820  16.1994390   4.5693300
  65.7540800  14.9151620   2.5091940  65.6929200  13.9712840   2.3622960
  66.5332830  15.0231710   3.0545400  61.7260360  13.6642480   3.2033130
  62.3289730  14.2362690   3.6781650  60.9853350  14.2281920   2.9807030
  58.1876510  31.7639180  13.2405720  59.1143820  31.5283450  13.2841680
  58.1726940  32.5911180  12.7591750  55.3740120  14.4283930  13.0047600
  55.0924390  14.9317530  12.2408420  55.7559820  13.6305680  12.6389730
  61.9755580  13.8437510  13.5828070  61.8621030  14.1632120  14.4779590
  62.7925320  14.2450020  13.2865350  64.7554070  30.9909040  13.0646760
  65.5479390  30.4958270  12.8572720  65.0487220  31.6699180  13.6722370
  60.8813730   3.0886490  77.8180260  60.8007780   2.1741100  77.5471970
  60.4678150   3.5853560  77.1119970  59.0131770   4.8665510  79.6989530
  58.2373870   4.3865950  79.9888100  59.6644700   4.1871160  79.5245690
  53.0297600   5.1785320  80.5765290  52.1982480   4.9234030  80.9761800
  53.6378580   5.2496090  81.3123210  63.0339200   9.2725700  78.4788660
  62.5720730   8.5012940  78.8075830  63.8464750   9.2991770  78.9841110
  53.0098860   9.2125410  80.7723310  53.3126900   8.3223150  80.5933530
  53.7542450   9.7695630  80.5445560  49.4022560   2.7392860  80.2447380
  49.9738670   1.9715060  80.2451020  49.4024100   3.0381620  79.3353990
  59.2602510  11.5583710  78.0992650  58.6413950  12.0141210  77.5287090
  60.1154290  11.7135170  77.6982350  58.4540760   7.5422700  79.7059690
  58.3849040   6.6012640  79.5448820  59.2160620   7.6324110  80.2782260
  60.1265860   6.4422950  75.4924560  59.5083130   6.9072400  74.9287280
  60.6389110   7.1350430  75.9094070  49.4949060   7.1279480  72.8664190
  49.1177040   7.6166580  72.1349090  49.7522130   7.8004760  73.4970720
  65.1194310   9.4019030  81.9011980  64.4357830  10.0718140  81.8928650
  65.6588600   9.5999680  81.1356840  62.6553050  11.2463160  80.6157160
  62.6680210  10.8425450  79.7479420  62.1028270  12.0210450  80.5118590
  63.9498470   7.9679380  75.7047330  63.8394800   7.0253710  75.8296750
  63.9466720   8.3295020  76.5910090  59.4918750   3.5944700  75.0609820
  58.5648030   3.5282080  75.2898290  59.6443570   4.5324830  74.9465060
  66.0000590   4.5480220  82.0356010  65.1719220   4.6173310  81.5606140
  66.5951070   5.1334530  81.5671840  63.5216040   5.1565000  75.5645070
  62.9028460   4.8184550  74.9171370  63.5040490   4.5124760  76.2724260
  55.0975390   4.1209440  77.8429550  54.6932390   3.4086690  77.3475450
  55.1838510   3.7762680  78.7317590  55.5657090   7.8077000  80.0068760
  55.2685380   7.2022470  79.3276540  56.5156910   7.8454310  79.8958120
  61.6980740   4.3951810  72.5717820  62.1374020   3.5574240  72.4255640
  62.4109160   5.0281210  72.6581960  59.8076120   9.3347880  76.5399060
  60.2472030  10.0772210  76.1254450  59.7463010   9.5774450  77.4638020
  51.7980020   3.0154420  75.3436200  51.6777620   3.7416510  74.7317470
  51.4880910   2.2457330  74.8664110  49.4365390   6.1869560  81.1504840
  49.5145810   6.3218330  80.2060560  50.0507070   5.4785450  81.3432960
  50.6813020   7.8869750  77.5611020  50.2741100   8.0284340  76.7064620
  51.5726030   7.6029910  77.3582230  62.4746300  12.3217000  73.8962070
  62.3147440  12.0319940  74.7943900  62.3093010  11.5457130  73.3607300
  54.9534680  12.1015530  75.6733690  54.7777160  11.1851070  75.4601490
  54.0990420  12.4602820  75.9131490  62.1772430   9.8304560  72.4560070
  61.4837590   9.8281850  71.7962350  62.9195290   9.4063880  72.0254240
  61.7422360  11.4567270  76.5308560  62.1979310  10.6756650  76.8447180
  62.0814880  12.1674090  77.0749740  60.4775670   2.7155720  81.1785830
  59.7456790   3.2242530  81.5275930  60.0800010   1.8985700  80.8774610
  55.9894710   2.7023140  71.9728380  55.4211610   2.2541390  71.3464290
  56.6983710   3.0615920  71.4393530  53.5342190   6.6981330  74.2454790
  52.7604450   6.1578950  74.0853510  54.2636820   6.1787940  73.9072550
  64.2930170   5.6946690  80.0381180  65.0129290   6.1901980  79.6477290
  64.0911990   5.0164580  79.3935050  53.5779590   6.3661710  77.8833600
  54.0958260   5.5629970  77.8290490  53.1263610   6.3040850  78.7250430
  58.4649090   7.6327990  73.1560900  58.8064790   8.3770220  72.6604220
  57.6361800   7.9459110  73.5185730  64.7402770   2.7716140  71.9452590
  64.6566490   3.2030360  71.0949030  65.4596960   3.2314490  72.3779410
  65.7690020   9.6258400  74.6734720  65.1266180   8.9714020  74.9478440
  65.3820680  10.0313490  73.8975390  61.3476500   6.9543830  78.5206410
  61.7000320   6.3571960  77.8607780  60.4638830   6.6288060  78.6914660
  57.4339780   7.7141520  75.9276820  58.1210910   8.2610730  76.3084410
  56.6472200   8.2582250  75.9626430  49.5732180   3.3314340  71.4193900
  50.4427030   3.6139140  71.7029820  49.0822500   4.1450210  71.3042710
  56.7366990   4.7187550  75.5402180  57.1929770   5.5292800  75.7662370
  56.3855200   4.4010690  76.3720670  60.3131680   8.2326240  81.4871930
  60.9553910   7.5319400  81.6004100  60.8381030   9.0124680  81.3068820
  64.1587400   8.5174860  71.2111070  63.9324980   7.8005300  71.8035710
  63.7683600   8.2687300  70.3732820  49.9403430  12.5441720  71.9855530
  50.3001070  13.1431060  71.3312800  49.7995770  13.0901610  72.7590560
  63.7403650   6.4346800  72.8725230  63.4525350   6.8959490  73.6603110
  64.5355820   5.9744570  73.1409450  55.9572050   9.9272920  72.8029200
  55.9482150  10.6602610  72.1873710  55.0370410   9.6804500  72.8956160
  51.5578690   5.1487810  73.5475960  50.9506640   5.8886710  73.5571260
  52.0328040   5.2387170  72.7214160  58.9431650   9.9901160  71.4654390
  59.0443630   9.7865150  70.5356370  58.0433390   9.7359440  71.6702170
  57.5849760  12.5087480  76.1602060  57.8391260  12.4708870  75.2381430
  56.6362240  12.3820810  76.1530310  63.5902340   3.4279360  77.7360570
  62.6492480   3.4429590  77.9108260  63.9046410   2.6415320  78.1820870
  53.5683980   5.1098960  71.2964530  54.3347250   4.9980320  71.8589960
  53.6458670   4.4136930  70.6441300  65.5927920  10.5988210  79.4114830
  65.7175340  11.4219380  79.8838640  66.4593480  10.3878940  79.0638980
  53.0645450  12.6919420  79.0831960  53.8007930  12.1434880  79.3540530
  53.4486370  13.5575430  78.9437950  49.9490930   8.7592990  74.9573470
  49.0230710   9.0014130  74.9478880  50.4147360   9.5867250  74.8358220
  56.1747760  11.8649730  70.9057530  56.9676370  12.1538560  70.4539320
  55.6552110  11.4341900  70.2270010  65.2277930  11.0919860  72.3294270
  64.9419440  10.6785000  71.5148450  65.0297480  12.0207570  72.2094790
  56.6925160   7.0853140  70.7699880  56.5875800   6.4705490  71.4961260
  56.5249380   6.5619030  69.9862890  59.9327890   6.1473170  71.3741870
  59.3837990   6.5942470  72.0184610  60.5547150   5.6422420  71.8979540
  55.6003010   5.1064090  73.2707170  56.0219430   4.9403960  74.1138560
  55.7253850   4.2964320  72.7762310  58.1130650   4.1301700  70.5184270
  58.6336310   3.4150720  70.1525420  58.7599050   4.7687570  70.8184780
  58.6778680  12.2113310  72.8086010  59.5729470  12.5498280  72.8304770
  58.7096310  11.4892720  72.1810290  52.3174840   7.5840360  71.0373010
  52.7549710   8.1270030  71.6930590  52.8022570   6.7587310  71.0469350
  49.5320640  10.3729390  78.4893270  49.8623650   9.5050450  78.2571910
  49.9611640  10.5787910  79.3198230  54.1282560   8.7038400  76.1495240
  53.8278100   8.5803370  77.0499150  54.0220050   7.8446990  75.7410970
  66.8974480   8.4834800  70.8521920  66.0667440   8.5511450  71.3229150
  67.0746310   9.3738920  70.5488780  66.3530940   5.2282280  73.3556120
  67.1149850   5.7978930  73.4615810  66.3685310   4.6609480  74.1264430
  49.8535280   3.7520210  77.5863780  49.1984120   3.4831850  76.9423480
  50.6913230   3.6424690  77.1365760  67.3590910   6.0832380  78.1998050
  67.7299740   5.2999700  77.7934020  67.9992840   6.7721480  78.0215350
  66.4050110   5.5216650  70.5128640  66.6798950   6.4295530  70.3847860
  66.2160850   5.4579180  71.4490630  66.3015450   3.4585640  75.5058070
  65.9259050   2.6913570  75.0739360  65.5718570   3.8408340  75.9933000
  64.4000720  12.2187560  77.1396640  64.9959790  11.8972130  76.4631060
  64.6578870  11.7459380  77.9309910  64.9512930  12.8682860  80.9694370
  64.4915900  13.6198670  80.5952390  64.3225390  12.1489330  80.9109170
  55.3808650  11.1771100  80.1442500  55.8973670  10.5658460  79.6190760
  56.0306030  11.6799880  80.6353510  58.1204150  12.0679590  80.9711480
  58.4081960  11.8133890  80.0944490  58.6327370  11.5156950  81.5617050
  50.0593550  12.2800490  76.5689850  49.8915590  11.6471170  77.2671740
  49.1928060  12.4859890  76.2184040  51.6656250  10.9733720  74.0139990
  51.1403870  11.3541750  73.3101950  51.5900830  11.5984490  74.7349700
  66.4221570  12.5321260  75.3353930  66.5973760  11.8459000  74.6914850
  65.7243140  13.0568310  74.9430600  54.2649220  12.9216100  72.8889240
  54.9968040  12.6375380  72.3413130  54.5242890  12.6829380  73.7788620
  53.4264010   9.0380830  72.8935570  52.7972890   9.5065930  73.4421400
  53.5411840   8.1930050  73.3281760  60.8813730   3.0886490  59.0436770
  60.8007780   2.1741100  58.7728480  60.4678150   3.5853560  58.3376480
  59.0131770   4.8665510  60.9246040  58.2373870   4.3865950  61.2144610
  59.6644700   4.1871160  60.7502200  53.0297600   5.1785320  61.8021800
  52.1982480   4.9234030  62.2018310  53.6378580   5.2496090  62.5379720
  63.0339200   9.2725700  59.7045170  62.5720730   8.5012940  60.0332340
  63.8464750   9.2991770  60.2097620  53.0098860   9.2125410  61.9979820
  53.3126900   8.3223150  61.8190040  53.7542450   9.7695630  61.7702070
  49.4022560   2.7392860  61.4703890  49.9738670   1.9715060  61.4707530
  49.4024100   3.0381620  60.5610500  59.2602510  11.5583710  59.3249160
  58.6413950  12.0141210  58.7543600  60.1154290  11.7135170  58.9238860
  58.4540760   7.5422700  60.9316200  58.3849040   6.6012640  60.7705330
  59.2160620   7.6324110  61.5038770  60.1265860   6.4422950  56.7181070
  59.5083130   6.9072400  56.1543790  60.6389110   7.1350430  57.1350580
  54.9897620   5.9698820  63.3964670  54.6567000   6.5967740  64.0385740
  55.1664300   6.4960700  62.6166340  54.2016720   7.9379620  65.2113850
  54.8190720   8.6130700  64.9298300  53.3409840   8.3467600  65.1201350
  49.4949060   7.1279480  54.0920700  49.1177040   7.6166580  53.3605600
  49.7522130   7.8004760  54.7227230  65.1194310   9.4019030  63.1268490
  64.4357830  10.0718140  63.1185160  65.6588600   9.5999680  62.3613350
  62.6553050  11.2463160  61.8413670  62.6680210  10.8425450  60.9735930
  62.1028270  12.0210450  61.7375100  63.9498470   7.9679380  56.9303840
  63.8394800   7.0253710  57.0553260  63.9466720   8.3295020  57.8166600
  62.0538490   6.1493000  63.1696280  62.4707280   5.9353110  62.3349740
  62.7778310   6.4065790  63.7404900  59.4918750   3.5944700  56.2866330
  58.5648030   3.5282080  56.5154800  59.6443570   4.5324830  56.1721570
  66.0000590   4.5480220  63.2612520  65.1719220   4.6173310  62.7862650
  66.5951070   5.1334530  62.7928350  63.5216040   5.1565000  56.7901580
  62.9028460   4.8184550  56.1427880  63.5040490   4.5124760  57.4980770
  55.0975390   4.1209440  59.0686060  54.6932390   3.4086690  58.5731960
  55.1838510   3.7762680  59.9574100  55.5657090   7.8077000  61.2325270
  55.2685380   7.2022470  60.5533050  56.5156910   7.8454310  61.1214630
  63.6542700  11.3808870  64.8948370  63.1773260  12.1881060  64.7020980
  62.9704490  10.7287200  65.0474580  54.6575520   7.5458690  67.8833070
  53.7604050   7.7698660  68.1306470  54.6828390   7.6693630  66.9344470
  61.6980740   4.3951810  53.7974330  62.1374020   3.5574240  53.6512150
  62.4109160   5.0281210  53.8838470  53.4846740   4.4172010  66.4590440
  53.3454510   5.2894810  66.8277840  52.6028100   4.0744820  66.3138380
  59.8076120   9.3347880  57.7655570  60.2472030  10.0772210  57.3510960
  59.7463010   9.5774450  58.6894530  55.2827090  10.3593710  68.6675590
  55.2542520  10.7636660  67.8004020  55.1192060   9.4304070  68.5047190
  51.7980020   3.0154420  56.5692710  51.6777620   3.7416510  55.9573980
  51.4880910   2.2457330  56.0920620  67.2341910  11.1420810  69.9639760
  67.7101630  11.6203700  70.6428840  67.8549070  11.0738300  69.2385260
  49.4365390   6.1869560  62.3761350  49.5145810   6.3218330  61.4317070
  50.0507070   5.4785450  62.5689470  50.6813020   7.8869750  58.7867530
  50.2741100   8.0284340  57.9321130  51.5726030   7.6029910  58.5838740
  66.6375160   8.3333660  67.1239770  66.7638220   8.0945540  66.2056950
  66.6796540   7.5018200  67.5961850  60.4991900  12.0361660  65.6934580
  61.0136570  11.9469670  66.4957010  59.6560980  12.3821360  65.9862490
  62.4746300  12.3217000  55.1218580  62.3147440  12.0319940  56.0200410
  62.3093010  11.5457130  54.5863810  54.9534680  12.1015530  56.8990200
  54.7777160  11.1851070  56.6858000  54.0990420  12.4602820  57.1388000
  62.1772430   9.8304560  53.6816580  61.4837590   9.8281850  53.0218860
  62.9195290   9.4063880  53.2510750  61.7422360  11.4567270  57.7565070
  62.1979310  10.6756650  58.0703690  62.0814880  12.1674090  58.3006250
  49.4924910   7.2283730  64.9155810  49.6555950   6.7589090  64.0975180
  49.9577360   6.7207290  65.5804650  60.4775670   2.7155720  62.4042340
  59.7456790   3.2242530  62.7532440  60.0800010   1.8985700  62.1031120
  55.9894710   2.7023140  53.1984890  55.4211610   2.2541390  52.5720800
  56.6983710   3.0615920  52.6650040  51.0663890   6.6035160  67.0751620
  50.6818680   5.9628830  67.6734580  51.3776080   7.3071280  67.6446350
  57.2161030   3.4511700  62.5560240  57.5831160   2.9770270  63.3021580
  57.0266090   4.3253270  62.8968580  55.0060400   2.4920340  64.8744450
  54.7017470   3.3712320  65.0994810  55.9606860   2.5520130  64.9101890
  53.5342190   6.6981330  55.4711300  52.7604450   6.1578950  55.3110020
  54.2636820   6.1787940  55.1329060  64.2930170   5.6946690  61.2637690
  65.0129290   6.1901980  60.8733800  64.0911990   5.0164580  60.6191560
  59.6748970   5.7655750  67.1506690  59.6086280   4.8451420  66.8964280
  59.0454110   5.8631190  67.8651330  53.5779590   6.3661710  59.1090110
  54.0958260   5.5629970  59.0547000  53.1263610   6.3040850  59.9506940
  58.4649090   7.6327990  54.3817410  58.8064790   8.3770220  53.8860730
  57.6361800   7.9459110  54.7442240  51.0624130   3.3323080  66.0215810
  50.7039070   3.9976930  66.6089150  50.7678690   2.5006630  66.3928430
  54.2637250   3.7907320  68.9055360  53.9637390   3.9364500  68.0083180
  55.0348490   3.2312610  68.8128750  59.6065700   8.5876320  66.9010490
  59.6210240   7.6557280  66.6829400  58.8990800   8.6736080  67.5400260
  64.7402770   2.7716140  53.1709100  64.6566490   3.2030360  52.3205540
  65.4596960   3.2314490  53.6035920  65.8176910   5.2283660  66.2479070
  65.0925100   5.8212440  66.0508460  66.3452370   5.2207200  65.4492440
  65.7690020   9.6258400  55.8991230  65.1266180   8.9714020  56.1734950
  65.3820680  10.0313490  55.1231900  61.3476500   6.9543830  59.7462920
  61.7000320   6.3571960  59.0864290  60.4638830   6.6288060  59.9171170
  57.4339780   7.7141520  57.1533330  58.1210910   8.2610730  57.5340920
  56.6472200   8.2582250  57.1882940  49.5732180   3.3314340  52.6450410
  50.4427030   3.6139140  52.9286330  49.0822500   4.1450210  52.5299220
  56.7366990   4.7187550  56.7658690  57.1929770   5.5292800  56.9918880
  56.3855200   4.4010690  57.5977180  59.0399600  10.2293890  63.9950990
  59.6841820  10.4353270  64.6724410  59.4029040   9.4682290  63.5421840
  60.3131680   8.2326240  62.7128440  60.9553910   7.5319400  62.8260610
  60.8381030   9.0124680  62.5325330  64.1587400   8.5174860  52.4367580
  63.9324980   7.8005300  53.0292220  63.7683600   8.2687300  51.5989330
  62.0869300   9.0321140  65.9164500  62.4225540   9.6187830  66.5942420
  61.1669640   8.9013850  66.1462290  63.7403650   6.4346800  54.0981740
  63.4525350   6.8959490  54.8859620  64.5355820   5.9744570  54.3665960
  49.9245290  10.8096580  67.6854440  50.0336410   9.8691320  67.5449830
  49.2725850  11.0751330  67.0368170  57.9157880   9.0812470  69.0852560
  57.5954750   8.3621710  69.6298250  57.2416240   9.7567540  69.1588620
  55.9572050   9.9272920  54.0285710  55.9482150  10.6602610  53.4130220
  55.0370410   9.6804500  54.1212670  51.5578690   5.1487810  54.7732470
  50.9506640   5.8886710  54.7827770  52.0328040   5.2387170  53.9470670
  58.9431650   9.9901160  52.6910900  59.0443630   9.7865150  51.7612880
  58.0433390   9.7359440  52.8958680  57.5849760  12.5087480  57.3858570
  57.8391260  12.4708870  56.4637940  56.6362240  12.3820810  57.3786820
  63.5902340   3.4279360  58.9617080  62.6492480   3.4429590  59.1364770
  63.9046410   2.6415320  59.4077380  53.5683980   5.1098960  52.5221040
  54.3347250   4.9980320  53.0846470  53.6458670   4.4136930  51.8697810
  65.5927920  10.5988210  60.6371340  65.7175340  11.4219380  61.1095150
  66.4593480  10.3878940  60.2895490  53.0645450  12.6919420  60.3088470
  53.8007930  12.1434880  60.5797040  53.4486370  13.5575430  60.1694460
  49.9490930   8.7592990  56.1829980  49.0230710   9.0014130  56.1735390
  50.4147360   9.5867250  56.0614730  52.0703730  11.8765490  69.4974050
  52.8716460  12.1977540  69.9109450  51.5555550  11.5161070  70.2193960
  56.1747760  11.8649730  52.1314040  56.9676370  12.1538560  51.6795830
  55.6552110  11.4341900  51.4526520  60.9068360   7.9845360  69.4449460
  60.3006520   8.0076960  68.7045210  60.6022470   7.2528400  69.9816710
  62.3368730  11.7125650  68.0558870  63.2890480  11.6283670  68.0059110
  62.1896950  12.3767360  68.7292660  65.2277930  11.0919860  53.5550780
  64.9419440  10.6785000  52.7404960  65.0297480  12.0207570  53.4351300
  49.7901540   4.3638950  68.4410100  50.2940560   3.7846230  69.0126330
  49.0508960   4.6479180  68.9786470  56.6925160   7.0853140  51.9956390
  56.5875800   6.4705490  52.7217770  56.5249380   6.5619030  51.2119400
  56.8439480   5.7709940  67.9745620  56.0785150   6.3394940  67.8900290
  57.0255440   5.4786150  67.0813850  59.9327890   6.1473170  52.5998380
  59.3837990   6.5942470  53.2441120  60.5547150   5.6422420  53.1236050
  63.9862830   7.5015270  68.5320640  64.7272300   7.8391030  68.0288100
  63.2235510   7.6707330  67.9790410  51.8224620   2.5068540  69.3360170
  51.8629960   2.2082410  70.2445400  52.6770120   2.9076150  69.1767690
  55.6003010   5.1064090  54.4963680  56.0219430   4.9403960  55.3395070
  55.7253850   4.2964320  54.0018820  58.1130650   4.1301700  51.7440780
  58.6336310   3.4150720  51.3781930  58.7599050   4.7687570  52.0441290
  62.6608490   5.5530100  67.0675850  63.0749510   5.7075180  67.9166270
  61.7259490   5.6785320  67.2301630  63.1330660   2.8926260  69.0715000
  63.7151430   2.1378580  68.9835480  63.3092430   3.4233700  68.2946480
  57.4223720   5.5050580  65.0371780  57.8411830   6.3483310  64.8648020
  56.5032350   5.6422620  64.8078560  59.7587620   3.2366760  66.4209620
  59.8783830   2.6407900  67.1604460  60.6181620   3.2736450  66.0010920
  62.0975520   3.7903950  64.9972130  61.5710740   4.3146570  64.3937270
  62.4406860   4.4231340  65.6281860  55.2731140  11.8103590  66.1529510
  54.7352230  12.5349650  65.8338210  55.5265100  11.3333930  65.3626850
  58.1293350  13.0454800  66.4116160  58.0552050  13.9489940  66.7188530
  57.2272190  12.7266700  66.3838230  58.6778680  12.2113310  54.0342520
  59.5729470  12.5498280  54.0561280  58.7096310  11.4892720  53.4066800
  52.3174840   7.5840360  52.2629520  52.7549710   8.1270030  52.9187100
  52.8022570   6.7587310  52.2725860  49.5320640  10.3729390  59.7149780
  49.8623650   9.5050450  59.4828420  49.9611640  10.5787910  60.5454740
  54.1282560   8.7038400  57.3751750  53.8278100   8.5803370  58.2755660
  54.0220050   7.8446990  56.9667480  50.0210850  11.2399980  62.4531410
  49.5841840  11.4200780  63.2855560  50.5888530  11.9974600  62.3113130
  65.6573030  10.7416980  66.7408720  65.0575020  10.8009540  65.9972640
  65.7866930   9.8021960  66.8705570  66.8974480   8.4834800  52.0778430
  66.0667440   8.5511450  52.5485660  67.0746310   9.3738920  51.7745290
  66.3530940   5.2282280  54.5812630  67.1149850   5.7978930  54.6872320
  66.3685310   4.6609480  55.3520940  49.8535280   3.7520210  58.8120290
  49.1984120   3.4831850  58.1679990  50.6913230   3.6424690  58.3622270
  67.3590910   6.0832380  59.4254560  67.7299740   5.2999700  59.0190530
  67.9992840   6.7721480  59.2471860  64.3424670   7.4668960  64.8384880
  63.5284510   7.8966120  65.1010670  64.7498870   8.0787370  64.2253930
  66.4050110   5.5216650  51.7385150  66.6798950   6.4295530  51.6104370
  66.2160850   5.4579180  52.6747140  66.3015450   3.4585640  56.7314580
  65.9259050   2.6913570  56.2995870  65.5718570   3.8408340  57.2189510
  50.8911210   4.1372780  63.3523630  51.2584250   4.0500180  64.2319650
  50.3222030   3.3739330  63.2530490  65.6915070   2.6057160  66.3654100
  65.4601160   2.3769910  65.4652050  65.9519620   3.5256710  66.3198990
  65.7556130   1.7683000  63.5541370  64.8058840   1.7346540  63.6686360
  65.9369140   2.6783110  63.3191140  64.4000720  12.2187560  58.3653150
  64.9959790  11.8972130  57.6887570  64.6578870  11.7459380  59.1566420
  52.3063290   8.6505470  68.5143780  52.2632920   8.2798380  69.3958240
  52.4374300   9.5883040  68.6545600  56.0069320  10.2065060  64.1153500
  55.7660680  10.4739620  63.2284020  56.9471960  10.3770790  64.1704360
  67.2673480  12.2259440  64.9164140  66.7731760  12.6228310  64.1991270
  66.6586770  11.6008650  65.3101420  52.1451320  11.5967720  65.6341560
  51.5511640  11.4652420  66.3731600  52.1375160  10.7605860  65.1683660
  64.9512930  12.8682860  62.1950880  64.4915900  13.6198670  61.8208900
  64.3225390  12.1489330  62.1365680  51.7763550   8.9626100  64.5849600
  51.0497610   8.3431390  64.5175550  51.8372700   9.3566710  63.7147680
  55.3808650  11.1771100  61.3699010  55.8973670  10.5658460  60.8447270
  56.0306030  11.6799880  61.8610020  58.1204150  12.0679590  62.1967990
  58.4081960  11.8133890  61.3201000  58.6327370  11.5156950  62.7873560
  51.6656250  10.9733720  55.2396500  51.1403870  11.3541750  54.5358460
  51.5900830  11.5984490  55.9606210  58.1876510  12.9895690  69.5636190
  59.1143820  12.7539960  69.6072150  58.1726940  13.8167690  69.0822220
  66.4221570  12.5321260  56.5610440  66.5973760  11.8459000  55.9171360
  65.7243140  13.0568310  56.1687110  54.2649220  12.9216100  54.1145750
  54.9968040  12.6375380  53.5669640  54.5242890  12.6829380  55.0045130
  53.4264010   9.0380830  54.1192080  52.7972890   9.5065930  54.6677910
  53.5411840   8.1930050  54.5538270  64.7554070  12.2165550  69.3877230
  65.5479390  11.7214780  69.1803190  65.0487220  12.8955690  69.9952840
  60.8813730   3.0886490  40.2693280  60.8007780   2.1741100  39.9984990
  60.4678150   3.5853560  39.5632990  59.0131770   4.8665510  42.1502550
  58.2373870   4.3865950  42.4401120  59.6644700   4.1871160  41.9758710
  53.0297600   5.1785320  43.0278310  52.1982480   4.9234030  43.4274820
  53.6378580   5.2496090  43.7636230  63.0339200   9.2725700  40.9301680
  62.5720730   8.5012940  41.2588850  63.8464750   9.2991770  41.4354130
  53.0098860   9.2125410  43.2236330  53.3126900   8.3223150  43.0446550
  53.7542450   9.7695630  42.9958580  49.4022560   2.7392860  42.6960400
  49.9738670   1.9715060  42.6964040  49.4024100   3.0381620  41.7867010
  59.2602510  11.5583710  40.5505670  58.6413950  12.0141210  39.9800110
  60.1154290  11.7135170  40.1495370  58.4540760   7.5422700  42.1572710
  58.3849040   6.6012640  41.9961840  59.2160620   7.6324110  42.7295280
  60.1265860   6.4422950  37.9437580  59.5083130   6.9072400  37.3800300
  60.6389110   7.1350430  38.3607090  54.9897620   5.9698820  44.6221180
  54.6567000   6.5967740  45.2642250  55.1664300   6.4960700  43.8422850
  54.2016720   7.9379620  46.4370360  54.8190720   8.6130700  46.1554810
  53.3409840   8.3467600  46.3457860  49.4949060   7.1279480  35.3177210
  49.1177040   7.6166580  34.5862110  49.7522130   7.8004760  35.9483740
  65.1194310   9.4019030  44.3525000  64.4357830  10.0718140  44.3441670
  65.6588600   9.5999680  43.5869860  62.6553050  11.2463160  43.0670180
  62.6680210  10.8425450  42.1992440  62.1028270  12.0210450  42.9631610
  63.9498470   7.9679380  38.1560350  63.8394800   7.0253710  38.2809770
  63.9466720   8.3295020  39.0423110  62.0538490   6.1493000  44.3952790
  62.4707280   5.9353110  43.5606250  62.7778310   6.4065790  44.9661410
  59.4918750   3.5944700  37.5122840  58.5648030   3.5282080  37.7411310
  59.6443570   4.5324830  37.3978080  66.0000590   4.5480220  44.4869030
  65.1719220   4.6173310  44.0119160  66.5951070   5.1334530  44.0184860
  63.5216040   5.1565000  38.0158090  62.9028460   4.8184550  37.3684390
  63.5040490   4.5124760  38.7237280  55.0975390   4.1209440  40.2942570
  54.6932390   3.4086690  39.7988470  55.1838510   3.7762680  41.1830610
  55.5657090   7.8077000  42.4581780  55.2685380   7.2022470  41.7789560
  56.5156910   7.8454310  42.3471140  63.6542700  11.3808870  46.1204880
  63.1773260  12.1881060  45.9277490  62.9704490  10.7287200  46.2731090
  54.6575520   7.5458690  49.1089580  53.7604050   7.7698660  49.3562980
  54.6828390   7.6693630  48.1600980  61.6980740   4.3951810  35.0230840
  62.1374020   3.5574240  34.8768660  62.4109160   5.0281210  35.1094980
  53.4846740   4.4172010  47.6846950  53.3454510   5.2894810  48.0534350
  52.6028100   4.0744820  47.5394890  59.8076120   9.3347880  38.9912080
  60.2472030  10.0772210  38.5767470  59.7463010   9.5774450  39.9151040
  55.2827090  10.3593710  49.8932100  55.2542520  10.7636660  49.0260530
  55.1192060   9.4304070  49.7303700  51.7980020   3.0154420  37.7949220
  51.6777620   3.7416510  37.1830490  51.4880910   2.2457330  37.3177130
  67.2341910  11.1420810  51.1896270  67.7101630  11.6203700  51.8685350
  67.8549070  11.0738300  50.4641770  49.4365390   6.1869560  43.6017860
  49.5145810   6.3218330  42.6573580  50.0507070   5.4785450  43.7945980
  50.6813020   7.8869750  40.0124040  50.2741100   8.0284340  39.1577640
  51.5726030   7.6029910  39.8095250  66.6375160   8.3333660  48.3496280
  66.7638220   8.0945540  47.4313460  66.6796540   7.5018200  48.8218360
  60.4991900  12.0361660  46.9191090  61.0136570  11.9469670  47.7213520
  59.6560980  12.3821360  47.2119000  62.4746300  12.3217000  36.3475090
  62.3147440  12.0319940  37.2456920  62.3093010  11.5457130  35.8120320
  54.9534680  12.1015530  38.1246710  54.7777160  11.1851070  37.9114510
  54.0990420  12.4602820  38.3644510  62.1772430   9.8304560  34.9073090
  61.4837590   9.8281850  34.2475370  62.9195290   9.4063880  34.4767260
  61.7422360  11.4567270  38.9821580  62.1979310  10.6756650  39.2960200
  62.0814880  12.1674090  39.5262760  49.4924910   7.2283730  46.1412320
  49.6555950   6.7589090  45.3231690  49.9577360   6.7207290  46.8061160
  60.4775670   2.7155720  43.6298850  59.7456790   3.2242530  43.9788950
  60.0800010   1.8985700  43.3287630  55.9894710   2.7023140  34.4241400
  55.4211610   2.2541390  33.7977310  56.6983710   3.0615920  33.8906550
  51.0663890   6.6035160  48.3008130  50.6818680   5.9628830  48.8991090
  51.3776080   7.3071280  48.8702860  57.2161030   3.4511700  43.7816750
  57.5831160   2.9770270  44.5278090  57.0266090   4.3253270  44.1225090
  55.0060400   2.4920340  46.1000960  54.7017470   3.3712320  46.3251320
  55.9606860   2.5520130  46.1358400  53.5342190   6.6981330  36.6967810
  52.7604450   6.1578950  36.5366530  54.2636820   6.1787940  36.3585570
  64.2930170   5.6946690  42.4894200  65.0129290   6.1901980  42.0990310
  64.0911990   5.0164580  41.8448070  59.6748970   5.7655750  48.3763200
  59.6086280   4.8451420  48.1220790  59.0454110   5.8631190  49.0907840
  53.5779590   6.3661710  40.3346620  54.0958260   5.5629970  40.2803510
  53.1263610   6.3040850  41.1763450  58.4649090   7.6327990  35.6073920
  58.8064790   8.3770220  35.1117240  57.6361800   7.9459110  35.9698750
  51.0624130   3.3323080  47.2472320  50.7039070   3.9976930  47.8345660
  50.7678690   2.5006630  47.6184940  54.2637250   3.7907320  50.1311870
  53.9637390   3.9364500  49.2339690  55.0348490   3.2312610  50.0385260
  59.6065700   8.5876320  48.1267000  59.6210240   7.6557280  47.9085910
  58.8990800   8.6736080  48.7656770  64.7402770   2.7716140  34.3965610
  64.6566490   3.2030360  33.5462050  65.4596960   3.2314490  34.8292430
  65.8176910   5.2283660  47.4735580  65.0925100   5.8212440  47.2764970
  66.3452370   5.2207200  46.6748950  65.7690020   9.6258400  37.1247740
  65.1266180   8.9714020  37.3991460  65.3820680  10.0313490  36.3488410
  61.3476500   6.9543830  40.9719430  61.7000320   6.3571960  40.3120800
  60.4638830   6.6288060  41.1427680  57.4339780   7.7141520  38.3789840
  58.1210910   8.2610730  38.7597430  56.6472200   8.2582250  38.4139450
  49.5732180   3.3314340  33.8706920  50.4427030   3.6139140  34.1542840
  49.0822500   4.1450210  33.7555730  56.7366990   4.7187550  37.9915200
  57.1929770   5.5292800  38.2175390  56.3855200   4.4010690  38.8233690
  59.0399600  10.2293890  45.2207500  59.6841820  10.4353270  45.8980920
  59.4029040   9.4682290  44.7678350  60.3131680   8.2326240  43.9384950
  60.9553910   7.5319400  44.0517120  60.8381030   9.0124680  43.7581840
  64.1587400   8.5174860  33.6624090  63.9324980   7.8005300  34.2548730
  63.7683600   8.2687300  32.8245840  62.0869300   9.0321140  47.1421010
  62.4225540   9.6187830  47.8198930  61.1669640   8.9013850  47.3718800
  49.9403430  12.5441720  34.4368550  50.3001070  13.1431060  33.7825820
  49.7995770  13.0901610  35.2103580  63.7403650   6.4346800  35.3238250
  63.4525350   6.8959490  36.1116130  64.5355820   5.9744570  35.5922470
  49.9245290  10.8096580  48.9110950  50.0336410   9.8691320  48.7706340
  49.2725850  11.0751330  48.2624680  57.9157880   9.0812470  50.3109070
  57.5954750   8.3621710  50.8554760  57.2416240   9.7567540  50.3845130
  55.9572050   9.9272920  35.2542220  55.9482150  10.6602610  34.6386730
  55.0370410   9.6804500  35.3469180  51.5578690   5.1487810  35.9988980
  50.9506640   5.8886710  36.0084280  52.0328040   5.2387170  35.1727180
  58.9431650   9.9901160  33.9167410  59.0443630   9.7865150  32.9869390
  58.0433390   9.7359440  34.1215190  57.5849760  12.5087480  38.6115080
  57.8391260  12.4708870  37.6894450  56.6362240  12.3820810  38.6043330
  63.5902340   3.4279360  40.1873590  62.6492480   3.4429590  40.3621280
  63.9046410   2.6415320  40.6333890  53.5683980   5.1098960  33.7477550
  54.3347250   4.9980320  34.3102980  53.6458670   4.4136930  33.0954320
  65.5927920  10.5988210  41.8627850  65.7175340  11.4219380  42.3351660
  66.4593480  10.3878940  41.5152000  53.0645450  12.6919420  41.5344980
  53.8007930  12.1434880  41.8053550  53.4486370  13.5575430  41.3950970
  49.9490930   8.7592990  37.4086490  49.0230710   9.0014130  37.3991900
  50.4147360   9.5867250  37.2871240  52.0703730  11.8765490  50.7230560
  52.8716460  12.1977540  51.1365960  51.5555550  11.5161070  51.4450470
  56.1747760  11.8649730  33.3570550  56.9676370  12.1538560  32.9052340
  55.6552110  11.4341900  32.6783030  60.9068360   7.9845360  50.6705970
  60.3006520   8.0076960  49.9301720  60.6022470   7.2528400  51.2073220
  62.3368730  11.7125650  49.2815380  63.2890480  11.6283670  49.2315620
  62.1896950  12.3767360  49.9549170  65.2277930  11.0919860  34.7807290
  64.9419440  10.6785000  33.9661470  65.0297480  12.0207570  34.6607810
  49.7901540   4.3638950  49.6666610  50.2940560   3.7846230  50.2382840
  49.0508960   4.6479180  50.2042980  56.6925160   7.0853140  33.2212900
  56.5875800   6.4705490  33.9474280  56.5249380   6.5619030  32.4375910
  56.8439480   5.7709940  49.2002130  56.0785150   6.3394940  49.1156800
  57.0255440   5.4786150  48.3070360  59.9327890   6.1473170  33.8254890
  59.3837990   6.5942470  34.4697630  60.5547150   5.6422420  34.3492560
  63.9862830   7.5015270  49.7577150  64.7272300   7.8391030  49.2544610
  63.2235510   7.6707330  49.2046920  51.8224620   2.5068540  50.5616680
  51.8629960   2.2082410  51.4701910  52.6770120   2.9076150  50.4024200
  55.6003010   5.1064090  35.7220190  56.0219430   4.9403960  36.5651580
  55.7253850   4.2964320  35.2275330  58.1130650   4.1301700  32.9697290
  58.6336310   3.4150720  32.6038440  58.7599050   4.7687570  33.2697800
  62.6608490   5.5530100  48.2932360  63.0749510   5.7075180  49.1422780
  61.7259490   5.6785320  48.4558140  63.1330660   2.8926260  50.2971510
  63.7151430   2.1378580  50.2091990  63.3092430   3.4233700  49.5202990
  57.4223720   5.5050580  46.2628290  57.8411830   6.3483310  46.0904530
  56.5032350   5.6422620  46.0335070  59.7587620   3.2366760  47.6466130
  59.8783830   2.6407900  48.3860970  60.6181620   3.2736450  47.2267430
  62.0975520   3.7903950  46.2228640  61.5710740   4.3146570  45.6193780
  62.4406860   4.4231340  46.8538370  55.2731140  11.8103590  47.3786020
  54.7352230  12.5349650  47.0594720  55.5265100  11.3333930  46.5883360
  58.1293350  13.0454800  47.6372670  58.0552050  13.9489940  47.9445040
  57.2272190  12.7266700  47.6094740  58.6778680  12.2113310  35.2599030
  59.5729470  12.5498280  35.2817790  58.7096310  11.4892720  34.6323310
  52.3174840   7.5840360  33.4886030  52.7549710   8.1270030  34.1443610
  52.8022570   6.7587310  33.4982370  49.5320640  10.3729390  40.9406290
  49.8623650   9.5050450  40.7084930  49.9611640  10.5787910  41.7711250
  54.1282560   8.7038400  38.6008260  53.8278100   8.5803370  39.5012170
  54.0220050   7.8446990  38.1923990  50.0210850  11.2399980  43.6787920
  49.5841840  11.4200780  44.5112070  50.5888530  11.9974600  43.5369640
  65.6573030  10.7416980  47.9665230  65.0575020  10.8009540  47.2229150
  65.7866930   9.8021960  48.0962080  66.8974480   8.4834800  33.3034940
  66.0667440   8.5511450  33.7742170  67.0746310   9.3738920  33.0001800
  66.3530940   5.2282280  35.8069140  67.1149850   5.7978930  35.9128830
  66.3685310   4.6609480  36.5777450  49.8535280   3.7520210  40.0376800
  49.1984120   3.4831850  39.3936500  50.6913230   3.6424690  39.5878780
  67.3590910   6.0832380  40.6511070  67.7299740   5.2999700  40.2447040
  67.9992840   6.7721480  40.4728370  64.3424670   7.4668960  46.0641390
  63.5284510   7.8966120  46.3267180  64.7498870   8.0787370  45.4510440
  66.4050110   5.5216650  32.9641660  66.6798950   6.4295530  32.8360880
  66.2160850   5.4579180  33.9003650  66.3015450   3.4585640  37.9571090
  65.9259050   2.6913570  37.5252380  65.5718570   3.8408340  38.4446020
  50.8911210   4.1372780  44.5780140  51.2584250   4.0500180  45.4576160
  50.3222030   3.3739330  44.4787000  65.6915070   2.6057160  47.5910610
  65.4601160   2.3769910  46.6908560  65.9519620   3.5256710  47.5455500
  65.7556130   1.7683000  44.7797880  64.8058840   1.7346540  44.8942870
  65.9369140   2.6783110  44.5447650  64.4000720  12.2187560  39.5909660
  64.9959790  11.8972130  38.9144080  64.6578870  11.7459380  40.3822930
  52.3063290   8.6505470  49.7400290  52.2632920   8.2798380  50.6214750
  52.4374300   9.5883040  49.8802110  56.0069320  10.2065060  45.3410010
  55.7660680  10.4739620  44.4540530  56.9471960  10.3770790  45.3960870
  67.2673480  12.2259440  46.1420650  66.7731760  12.6228310  45.4247780
  66.6586770  11.6008650  46.5357930  52.1451320  11.5967720  46.8598070
  51.5511640  11.4652420  47.5988110  52.1375160  10.7605860  46.3940170
  64.9512930  12.8682860  43.4207390  64.4915900  13.6198670  43.0465410
  64.3225390  12.1489330  43.3622190  51.7763550   8.9626100  45.8106110
  51.0497610   8.3431390  45.7432060  51.8372700   9.3566710  44.9404190
  55.3808650  11.1771100  42.5955520  55.8973670  10.5658460  42.0703780
  56.0306030  11.6799880  43.0866530  58.1204150  12.0679590  43.4224500
  58.4081960  11.8133890  42.5457510  58.6327370  11.5156950  44.0130070
  50.0593550  12.2800490  39.0202870  49.8915590  11.6471170  39.7184760
  49.1928060  12.4859890  38.6697060  51.6656250  10.9733720  36.4653010
  51.1403870  11.3541750  35.7614970  51.5900830  11.5984490  37.1862720
  58.1876510  12.9895690  50.7892700  59.1143820  12.7539960  50.8328660
  58.1726940  13.8167690  50.3078730  66.4221570  12.5321260  37.7866950
  66.5973760  11.8459000  37.1427870  65.7243140  13.0568310  37.3943620
  54.2649220  12.9216100  35.3402260  54.9968040  12.6375380  34.7926150
  54.5242890  12.6829380  36.2301640  53.4264010   9.0380830  35.3448590
  52.7972890   9.5065930  35.8934420  53.5411840   8.1930050  35.7794780
  64.7554070  12.2165550  50.6133740  65.5479390  11.7214780  50.4059700
  65.0487220  12.8955690  51.2209350  60.8813730   3.0886490  21.4949790
  60.8007780   2.1741100  21.2241500  60.4678150   3.5853560  20.7889500
  59.0131770   4.8665510  23.3759060  58.2373870   4.3865950  23.6657630
  59.6644700   4.1871160  23.2015220  53.0297600   5.1785320  24.2534820
  52.1982480   4.9234030  24.6531330  53.6378580   5.2496090  24.9892740
  63.0339200   9.2725700  22.1558190  62.5720730   8.5012940  22.4845360
  63.8464750   9.2991770  22.6610640  53.0098860   9.2125410  24.4492840
  53.3126900   8.3223150  24.2703060  53.7542450   9.7695630  24.2215090
  49.4022560   2.7392860  23.9216910  49.9738670   1.9715060  23.9220550
  49.4024100   3.0381620  23.0123520  59.2602510  11.5583710  21.7762180
  58.6413950  12.0141210  21.2056620  60.1154290  11.7135170  21.3751880
  58.4540760   7.5422700  23.3829220  58.3849040   6.6012640  23.2218350
  59.2160620   7.6324110  23.9551790  60.1265860   6.4422950  19.1694090
  59.5083130   6.9072400  18.6056810  60.6389110   7.1350430  19.5863600
  54.9897620   5.9698820  25.8477690  54.6567000   6.5967740  26.4898760
  55.1664300   6.4960700  25.0679360  54.2016720   7.9379620  27.6626870
  54.8190720   8.6130700  27.3811320  53.3409840   8.3467600  27.5714370
  49.4949060   7.1279480  16.5433720  49.1177040   7.6166580  15.8118620
  49.7522130   7.8004760  17.1740250  65.1194310   9.4019030  25.5781510
  64.4357830  10.0718140  25.5698180  65.6588600   9.5999680  24.8126370
  62.6553050  11.2463160  24.2926690  62.6680210  10.8425450  23.4248950
  62.1028270  12.0210450  24.1888120  63.9498470   7.9679380  19.3816860
  63.8394800   7.0253710  19.5066280  63.9466720   8.3295020  20.2679620
  62.0538490   6.1493000  25.6209300  62.4707280   5.9353110  24.7862760
  62.7778310   6.4065790  26.1917920  59.4918750   3.5944700  18.7379350
  58.5648030   3.5282080  18.9667820  59.6443570   4.5324830  18.6234590
  66.0000590   4.5480220  25.7125540  65.1719220   4.6173310  25.2375670
  66.5951070   5.1334530  25.2441370  63.5216040   5.1565000  19.2414600
  62.9028460   4.8184550  18.5940900  63.5040490   4.5124760  19.9493790
  55.0975390   4.1209440  21.5199080  54.6932390   3.4086690  21.0244980
  55.1838510   3.7762680  22.4087120  55.5657090   7.8077000  23.6838290
  55.2685380   7.2022470  23.0046070  56.5156910   7.8454310  23.5727650
  63.6542700  11.3808870  27.3461390  63.1773260  12.1881060  27.1534000
  62.9704490  10.7287200  27.4987600  54.6575520   7.5458690  30.3346090
  53.7604050   7.7698660  30.5819490  54.6828390   7.6693630  29.3857490
  61.6980740   4.3951810  16.2487350  62.1374020   3.5574240  16.1025170
  62.4109160   5.0281210  16.3351490  53.4846740   4.4172010  28.9103460
  53.3454510   5.2894810  29.2790860  52.6028100   4.0744820  28.7651400
  59.8076120   9.3347880  20.2168590  60.2472030  10.0772210  19.8023980
  59.7463010   9.5774450  21.1407550  55.2827090  10.3593710  31.1188610
  55.2542520  10.7636660  30.2517040  55.1192060   9.4304070  30.9560210
  51.7980020   3.0154420  19.0205730  51.6777620   3.7416510  18.4087000
  51.4880910   2.2457330  18.5433640  67.2341910  11.1420810  32.4152780
  67.7101630  11.6203700  33.0941860  67.8549070  11.0738300  31.6898280
  49.4365390   6.1869560  24.8274370  49.5145810   6.3218330  23.8830090
  50.0507070   5.4785450  25.0202490  50.6813020   7.8869750  21.2380550
  50.2741100   8.0284340  20.3834150  51.5726030   7.6029910  21.0351760
  66.6375160   8.3333660  29.5752790  66.7638220   8.0945540  28.6569970
  66.6796540   7.5018200  30.0474870  60.4991900  12.0361660  28.1447600
  61.0136570  11.9469670  28.9470030  59.6560980  12.3821360  28.4375510
  62.4746300  12.3217000  17.5731600  62.3147440  12.0319940  18.4713430
  62.3093010  11.5457130  17.0376830  54.9534680  12.1015530  19.3503220
  54.7777160  11.1851070  19.1371020  54.0990420  12.4602820  19.5901020
  62.1772430   9.8304560  16.1329600  61.4837590   9.8281850  15.4731880
  62.9195290   9.4063880  15.7023770  61.7422360  11.4567270  20.2078090
  62.1979310  10.6756650  20.5216710  62.0814880  12.1674090  20.7519270
  49.4924910   7.2283730  27.3668830  49.6555950   6.7589090  26.5488200
  49.9577360   6.7207290  28.0317670  60.4775670   2.7155720  24.8555360
  59.7456790   3.2242530  25.2045460  60.0800010   1.8985700  24.5544140
  55.9894710   2.7023140  15.6497910  55.4211610   2.2541390  15.0233820
  56.6983710   3.0615920  15.1163060  51.0663890   6.6035160  29.5264640
  50.6818680   5.9628830  30.1247600  51.3776080   7.3071280  30.0959370
  57.2161030   3.4511700  25.0073260  57.5831160   2.9770270  25.7534600
  57.0266090   4.3253270  25.3481600  55.0060400   2.4920340  27.3257470
  54.7017470   3.3712320  27.5507830  55.9606860   2.5520130  27.3614910
  53.5342190   6.6981330  17.9224320  52.7604450   6.1578950  17.7623040
  54.2636820   6.1787940  17.5842080  64.2930170   5.6946690  23.7150710
  65.0129290   6.1901980  23.3246820  64.0911990   5.0164580  23.0704580
  59.6748970   5.7655750  29.6019710  59.6086280   4.8451420  29.3477300
  59.0454110   5.8631190  30.3164350  53.5779590   6.3661710  21.5603130
  54.0958260   5.5629970  21.5060020  53.1263610   6.3040850  22.4019960
  58.4649090   7.6327990  16.8330430  58.8064790   8.3770220  16.3373750
  57.6361800   7.9459110  17.1955260  51.0624130   3.3323080  28.4728830
  50.7039070   3.9976930  29.0602170  50.7678690   2.5006630  28.8441450
  54.2637250   3.7907320  31.3568380  53.9637390   3.9364500  30.4596200
  55.0348490   3.2312610  31.2641770  59.6065700   8.5876320  29.3523510
  59.6210240   7.6557280  29.1342420  58.8990800   8.6736080  29.9913280
  64.7402770   2.7716140  15.6222120  64.6566490   3.2030360  14.7718560
  65.4596960   3.2314490  16.0548940  65.8176910   5.2283660  28.6992090
  65.0925100   5.8212440  28.5021480  66.3452370   5.2207200  27.9005460
  65.7690020   9.6258400  18.3504250  65.1266180   8.9714020  18.6247970
  65.3820680  10.0313490  17.5744920  61.3476500   6.9543830  22.1975940
  61.7000320   6.3571960  21.5377310  60.4638830   6.6288060  22.3684190
  57.4339780   7.7141520  19.6046350  58.1210910   8.2610730  19.9853940
  56.6472200   8.2582250  19.6395960  49.5732180   3.3314340  15.0963430
  50.4427030   3.6139140  15.3799350  49.0822500   4.1450210  14.9812240
  56.7366990   4.7187550  19.2171710  57.1929770   5.5292800  19.4431900
  56.3855200   4.4010690  20.0490200  59.0399600  10.2293890  26.4464010
  59.6841820  10.4353270  27.1237430  59.4029040   9.4682290  25.9934860
  60.3131680   8.2326240  25.1641460  60.9553910   7.5319400  25.2773630
  60.8381030   9.0124680  24.9838350  64.1587400   8.5174860  14.8880600
  63.9324980   7.8005300  15.4805240  63.7683600   8.2687300  14.0502350
  62.0869300   9.0321140  28.3677520  62.4225540   9.6187830  29.0455440
  61.1669640   8.9013850  28.5975310  49.9403430  12.5441720  15.6625060
  50.3001070  13.1431060  15.0082330  49.7995770  13.0901610  16.4360090
  63.7403650   6.4346800  16.5494760  63.4525350   6.8959490  17.3372640
  64.5355820   5.9744570  16.8178980  49.9245290  10.8096580  30.1367460
  50.0336410   9.8691320  29.9962850  49.2725850  11.0751330  29.4881190
  57.9157880   9.0812470  31.5365580  57.5954750   8.3621710  32.0811270
  57.2416240   9.7567540  31.6101640  55.9572050   9.9272920  16.4798730
  55.9482150  10.6602610  15.8643240  55.0370410   9.6804500  16.5725690
  51.5578690   5.1487810  17.2245490  50.9506640   5.8886710  17.2340790
  52.0328040   5.2387170  16.3983690  58.9431650   9.9901160  15.1423920
  59.0443630   9.7865150  14.2125900  58.0433390   9.7359440  15.3471700
  57.5849760  12.5087480  19.8371590  57.8391260  12.4708870  18.9150960
  56.6362240  12.3820810  19.8299840  63.5902340   3.4279360  21.4130100
  62.6492480   3.4429590  21.5877790  63.9046410   2.6415320  21.8590400
  53.5683980   5.1098960  14.9734060  54.3347250   4.9980320  15.5359490
  53.6458670   4.4136930  14.3210830  65.5927920  10.5988210  23.0884360
  65.7175340  11.4219380  23.5608170  66.4593480  10.3878940  22.7408510
  53.0645450  12.6919420  22.7601490  53.8007930  12.1434880  23.0310060
  53.4486370  13.5575430  22.6207480  49.9490930   8.7592990  18.6343000
  49.0230710   9.0014130  18.6248410  50.4147360   9.5867250  18.5127750
  52.0703730  11.8765490  31.9487070  52.8716460  12.1977540  32.3622470
  51.5555550  11.5161070  32.6706980  56.1747760  11.8649730  14.5827060
  56.9676370  12.1538560  14.1308850  55.6552110  11.4341900  13.9039540
  60.9068360   7.9845360  31.8962480  60.3006520   8.0076960  31.1558230
  60.6022470   7.2528400  32.4329730  62.3368730  11.7125650  30.5071890
  63.2890480  11.6283670  30.4572130  62.1896950  12.3767360  31.1805680
  65.2277930  11.0919860  16.0063800  64.9419440  10.6785000  15.1917980
  65.0297480  12.0207570  15.8864320  49.7901540   4.3638950  30.8923120
  50.2940560   3.7846230  31.4639350  49.0508960   4.6479180  31.4299490
  56.6925160   7.0853140  14.4469410  56.5875800   6.4705490  15.1730790
  56.5249380   6.5619030  13.6632420  56.8439480   5.7709940  30.4258640
  56.0785150   6.3394940  30.3413310  57.0255440   5.4786150  29.5326870
  59.9327890   6.1473170  15.0511400  59.3837990   6.5942470  15.6954140
  60.5547150   5.6422420  15.5749070  63.9862830   7.5015270  30.9833660
  64.7272300   7.8391030  30.4801120  63.2235510   7.6707330  30.4303430
  51.8224620   2.5068540  31.7873190  51.8629960   2.2082410  32.6958420
  52.6770120   2.9076150  31.6280710  55.6003010   5.1064090  16.9476700
  56.0219430   4.9403960  17.7908090  55.7253850   4.2964320  16.4531840
  58.1130650   4.1301700  14.1953800  58.6336310   3.4150720  13.8294950
  58.7599050   4.7687570  14.4954310  62.6608490   5.5530100  29.5188870
  63.0749510   5.7075180  30.3679290  61.7259490   5.6785320  29.6814650
  63.1330660   2.8926260  31.5228020  63.7151430   2.1378580  31.4348500
  63.3092430   3.4233700  30.7459500  57.4223720   5.5050580  27.4884800
  57.8411830   6.3483310  27.3161040  56.5032350   5.6422620  27.2591580
  59.7587620   3.2366760  28.8722640  59.8783830   2.6407900  29.6117480
  60.6181620   3.2736450  28.4523940  62.0975520   3.7903950  27.4485150
  61.5710740   4.3146570  26.8450290  62.4406860   4.4231340  28.0794880
  55.2731140  11.8103590  28.6042530  54.7352230  12.5349650  28.2851230
  55.5265100  11.3333930  27.8139870  58.1293350  13.0454800  28.8629180
  58.0552050  13.9489940  29.1701550  57.2272190  12.7266700  28.8351250
  58.6778680  12.2113310  16.4855540  59.5729470  12.5498280  16.5074300
  58.7096310  11.4892720  15.8579820  52.3174840   7.5840360  14.7142540
  52.7549710   8.1270030  15.3700120  52.8022570   6.7587310  14.7238880
  49.5320640  10.3729390  22.1662800  49.8623650   9.5050450  21.9341440
  49.9611640  10.5787910  22.9967760  54.1282560   8.7038400  19.8264770
  53.8278100   8.5803370  20.7268680  54.0220050   7.8446990  19.4180500
  50.0210850  11.2399980  24.9044430  49.5841840  11.4200780  25.7368580
  50.5888530  11.9974600  24.7626150  65.6573030  10.7416980  29.1921740
  65.0575020  10.8009540  28.4485660  65.7866930   9.8021960  29.3218590
  66.8974480   8.4834800  14.5291450  66.0667440   8.5511450  14.9998680
  67.0746310   9.3738920  14.2258310  66.3530940   5.2282280  17.0325650
  67.1149850   5.7978930  17.1385340  66.3685310   4.6609480  17.8033960
  49.8535280   3.7520210  21.2633310  49.1984120   3.4831850  20.6193010
  50.6913230   3.6424690  20.8135290  67.3590910   6.0832380  21.8767580
  67.7299740   5.2999700  21.4703550  67.9992840   6.7721480  21.6984880
  64.3424670   7.4668960  27.2897900  63.5284510   7.8966120  27.5523690
  64.7498870   8.0787370  26.6766950  66.4050110   5.5216650  14.1898170
  66.6798950   6.4295530  14.0617390  66.2160850   5.4579180  15.1260160
  66.3015450   3.4585640  19.1827600  65.9259050   2.6913570  18.7508890
  65.5718570   3.8408340  19.6702530  50.8911210   4.1372780  25.8036650
  51.2584250   4.0500180  26.6832670  50.3222030   3.3739330  25.7043510
  65.6915070   2.6057160  28.8167120  65.4601160   2.3769910  27.9165070
  65.9519620   3.5256710  28.7712010  65.7556130   1.7683000  26.0054390
  64.8058840   1.7346540  26.1199380  65.9369140   2.6783110  25.7704160
  64.4000720  12.2187560  20.8166170  64.9959790  11.8972130  20.1400590
  64.6578870  11.7459380  21.6079440  52.3063290   8.6505470  30.9656800
  52.2632920   8.2798380  31.8471260  52.4374300   9.5883040  31.1058620
  56.0069320  10.2065060  26.5666520  55.7660680  10.4739620  25.6797040
  56.9471960  10.3770790  26.6217380  67.2673480  12.2259440  27.3677160
  66.7731760  12.6228310  26.6504290  66.6586770  11.6008650  27.7614440
  52.1451320  11.5967720  28.0854580  51.5511640  11.4652420  28.8244620
  52.1375160  10.7605860  27.6196680  64.9512930  12.8682860  24.6463900
  64.4915900  13.6198670  24.2721920  64.3225390  12.1489330  24.5878700
  51.7763550   8.9626100  27.0362620  51.0497610   8.3431390  26.9688570
  51.8372700   9.3566710  26.1660700  55.3808650  11.1771100  23.8212030
  55.8973670  10.5658460  23.2960290  56.0306030  11.6799880  24.3123040
  58.1204150  12.0679590  24.6481010  58.4081960  11.8133890  23.7714020
  58.6327370  11.5156950  25.2386580  50.0593550  12.2800490  20.2459380
  49.8915590  11.6471170  20.9441270  49.1928060  12.4859890  19.8953570
  51.6656250  10.9733720  17.6909520  51.1403870  11.3541750  16.9871480
  51.5900830  11.5984490  18.4119230  58.1876510  12.9895690  32.0149210
  59.1143820  12.7539960  32.0585170  58.1726940  13.8167690  31.5335240
  66.4221570  12.5321260  19.0123460  66.5973760  11.8459000  18.3684380
  65.7243140  13.0568310  18.6200130  54.2649220  12.9216100  16.5658770
  54.9968040  12.6375380  16.0182660  54.5242890  12.6829380  17.4558150
  53.4264010   9.0380830  16.5705100  52.7972890   9.5065930  17.1190930
  53.5411840   8.1930050  17.0051290  64.7554070  12.2165550  31.8390250
  65.5479390  11.7214780  31.6316210  65.0487220  12.8955690  32.4465860
  60.8813730   3.0886490   2.7206300  60.8007780   2.1741100   2.4498010
  60.4678150   3.5853560   2.0146010  59.0131770   4.8665510   4.6015570
  58.2373870   4.3865950   4.8914140  59.6644700   4.1871160   4.4271730
  53.0297600   5.1785320   5.4791330  52.1982480   4.9234030   5.8787840
  53.6378580   5.2496090   6.2149250  63.0339200   9.2725700   3.3814700
  62.5720730   8.5012940   3.7101870  63.8464750   9.2991770   3.8867150
  53.0098860   9.2125410   5.6749350  53.3126900   8.3223150   5.4959570
  53.7542450   9.7695630   5.4471600  49.4022560   2.7392860   5.1473420
  49.9738670   1.9715060   5.1477060  49.4024100   3.0381620   4.2380030
  59.2602510  11.5583710   3.0018690  58.6413950  12.0141210   2.4313130
  60.1154290  11.7135170   2.6008390  58.4540760   7.5422700   4.6085730
  58.3849040   6.6012640   4.4474860  59.2160620   7.6324110   5.1808300
  54.9897620   5.9698820   7.0734200  54.6567000   6.5967740   7.7155270
  55.1664300   6.4960700   6.2935870  54.2016720   7.9379620   8.8883380
  54.8190720   8.6130700   8.6067830  53.3409840   8.3467600   8.7970880
  65.1194310   9.4019030   6.8038020  64.4357830  10.0718140   6.7954690
  65.6588600   9.5999680   6.0382880  62.6553050  11.2463160   5.5183200
  62.6680210  10.8425450   4.6505460  62.1028270  12.0210450   5.4144630
  62.0538490   6.1493000   6.8465810  62.4707280   5.9353110   6.0119270
  62.7778310   6.4065790   7.4174430  66.0000590   4.5480220   6.9382050
  65.1719220   4.6173310   6.4632180  66.5951070   5.1334530   6.4697880
  55.0975390   4.1209440   2.7455590  54.6932390   3.4086690   2.2501490
  55.1838510   3.7762680   3.6343630  55.5657090   7.8077000   4.9094800
  55.2685380   7.2022470   4.2302580  56.5156910   7.8454310   4.7984160
  63.6542700  11.3808870   8.5717900  63.1773260  12.1881060   8.3790510
  62.9704490  10.7287200   8.7244110  54.6575520   7.5458690  11.5602600
  53.7604050   7.7698660  11.8076000  54.6828390   7.6693630  10.6114000
  53.4846740   4.4172010  10.1359970  53.3454510   5.2894810  10.5047370
  52.6028100   4.0744820   9.9907910  55.2827090  10.3593710  12.3445120
  55.2542520  10.7636660  11.4773550  55.1192060   9.4304070  12.1816720
  67.2341910  11.1420810  13.6409290  67.7101630  11.6203700  14.3198370
  67.8549070  11.0738300  12.9154790  49.4365390   6.1869560   6.0530880
  49.5145810   6.3218330   5.1086600  50.0507070   5.4785450   6.2459000
  66.6375160   8.3333660  10.8009300  66.7638220   8.0945540   9.8826480
  66.6796540   7.5018200  11.2731380  60.4991900  12.0361660   9.3704110
  61.0136570  11.9469670  10.1726540  59.6560980  12.3821360   9.6632020
  49.4924910   7.2283730   8.5925340  49.6555950   6.7589090   7.7744710
  49.9577360   6.7207290   9.2574180  60.4775670   2.7155720   6.0811870
  59.7456790   3.2242530   6.4301970  60.0800010   1.8985700   5.7800650
  51.0663890   6.6035160  10.7521150  50.6818680   5.9628830  11.3504110
  51.3776080   7.3071280  11.3215880  57.2161030   3.4511700   6.2329770
  57.5831160   2.9770270   6.9791110  57.0266090   4.3253270   6.5738110
  55.0060400   2.4920340   8.5513980  54.7017470   3.3712320   8.7764340
  55.9606860   2.5520130   8.5871420  64.2930170   5.6946690   4.9407220
  65.0129290   6.1901980   4.5503330  64.0911990   5.0164580   4.2961090
  59.6748970   5.7655750  10.8276220  59.6086280   4.8451420  10.5733810
  59.0454110   5.8631190  11.5420860  53.5779590   6.3661710   2.7859640
  54.0958260   5.5629970   2.7316530  53.1263610   6.3040850   3.6276470
  51.0624130   3.3323080   9.6985340  50.7039070   3.9976930  10.2858680
  50.7678690   2.5006630  10.0697960  54.2637250   3.7907320  12.5824890
  53.9637390   3.9364500  11.6852710  55.0348490   3.2312610  12.4898280
  59.6065700   8.5876320  10.5780020  59.6210240   7.6557280  10.3598930
  58.8990800   8.6736080  11.2169790  65.8176910   5.2283660   9.9248600
  65.0925100   5.8212440   9.7277990  66.3452370   5.2207200   9.1261970
  61.3476500   6.9543830   3.4232450  61.7000320   6.3571960   2.7633820
  60.4638830   6.6288060   3.5940700  59.0399600  10.2293890   7.6720520
  59.6841820  10.4353270   8.3493940  59.4029040   9.4682290   7.2191370
  60.3131680   8.2326240   6.3897970  60.9553910   7.5319400   6.5030140
  60.8381030   9.0124680   6.2094860  62.0869300   9.0321140   9.5934030
  62.4225540   9.6187830  10.2711950  61.1669640   8.9013850   9.8231820
  49.9245290  10.8096580  11.3623970  50.0336410   9.8691320  11.2219360
  49.2725850  11.0751330  10.7137700  57.9157880   9.0812470  12.7622090
  57.5954750   8.3621710  13.3067780  57.2416240   9.7567540  12.8358150
  63.5902340   3.4279360   2.6386610  62.6492480   3.4429590   2.8134300
  63.9046410   2.6415320   3.0846910  65.5927920  10.5988210   4.3140870
  65.7175340  11.4219380   4.7864680  66.4593480  10.3878940   3.9665020
  53.0645450  12.6919420   3.9858000  53.8007930  12.1434880   4.2566570
  53.4486370  13.5575430   3.8463990  52.0703730  11.8765490  13.1743580
  52.8716460  12.1977540  13.5878980  51.5555550  11.5161070  13.8963490
  60.9068360   7.9845360  13.1218990  60.3006520   8.0076960  12.3814740
  60.6022470   7.2528400  13.6586240  62.3368730  11.7125650  11.7328400
  63.2890480  11.6283670  11.6828640  62.1896950  12.3767360  12.4062190
  49.7901540   4.3638950  12.1179630  50.2940560   3.7846230  12.6895860
  49.0508960   4.6479180  12.6556000  56.8439480   5.7709940  11.6515150
  56.0785150   6.3394940  11.5669820  57.0255440   5.4786150  10.7583380
  63.9862830   7.5015270  12.2090170  64.7272300   7.8391030  11.7057630
  63.2235510   7.6707330  11.6559940  51.8224620   2.5068540  13.0129700
  51.8629960   2.2082410  13.9214930  52.6770120   2.9076150  12.8537220
  62.6608490   5.5530100  10.7445380  63.0749510   5.7075180  11.5935800
  61.7259490   5.6785320  10.9071160  63.1330660   2.8926260  12.7484530
  63.7151430   2.1378580  12.6605010  63.3092430   3.4233700  11.9716010
  57.4223720   5.5050580   8.7141310  57.8411830   6.3483310   8.5417550
  56.5032350   5.6422620   8.4848090  59.7587620   3.2366760  10.0979150
  59.8783830   2.6407900  10.8373990  60.6181620   3.2736450   9.6780450
  62.0975520   3.7903950   8.6741660  61.5710740   4.3146570   8.0706800
  62.4406860   4.4231340   9.3051390  55.2731140  11.8103590   9.8299040
  54.7352230  12.5349650   9.5107740  55.5265100  11.3333930   9.0396380
  58.1293350  13.0454800  10.0885690  58.0552050  13.9489940  10.3958060
  57.2272190  12.7266700  10.0607760  49.5320640  10.3729390   3.3919310
  49.8623650   9.5050450   3.1597950  49.9611640  10.5787910   4.2224270
  50.0210850  11.2399980   6.1300940  49.5841840  11.4200780   6.9625090
  50.5888530  11.9974600   5.9882660  65.6573030  10.7416980  10.4178250
  65.0575020  10.8009540   9.6742170  65.7866930   9.8021960  10.5475100
  49.8535280   3.7520210   2.4889820  49.1984120   3.4831850   1.8449520
  50.6913230   3.6424690   2.0391800  67.3590910   6.0832380   3.1024090
  67.7299740   5.2999700   2.6960060  67.9992840   6.7721480   2.9241390
  64.3424670   7.4668960   8.5154410  63.5284510   7.8966120   8.7780200
  64.7498870   8.0787370   7.9023460  50.8911210   4.1372780   7.0293160
  51.2584250   4.0500180   7.9089180  50.3222030   3.3739330   6.9300020
  65.6915070   2.6057160  10.0423630  65.4601160   2.3769910   9.1421580
  65.9519620   3.5256710   9.9968520  65.7556130   1.7683000   7.2310900
  64.8058840   1.7346540   7.3455890  65.9369140   2.6783110   6.9960670
  52.3063290   8.6505470  12.1913310  52.2632920   8.2798380  13.0727770
  52.4374300   9.5883040  12.3315130  56.0069320  10.2065060   7.7923030
  55.7660680  10.4739620   6.9053550  56.9471960  10.3770790   7.8473890
  67.2673480  12.2259440   8.5933670  66.7731760  12.6228310   7.8760800
  66.6586770  11.6008650   8.9870950  52.1451320  11.5967720   9.3111090
  51.5511640  11.4652420  10.0501130  52.1375160  10.7605860   8.8453190
  64.9512930  12.8682860   5.8720410  64.4915900  13.6198670   5.4978430
  64.3225390  12.1489330   5.8135210  51.7763550   8.9626100   8.2619130
  51.0497610   8.3431390   8.1945080  51.8372700   9.3566710   7.3917210
  55.3808650  11.1771100   5.0468540  55.8973670  10.5658460   4.5216800
  56.0306030  11.6799880   5.5379550  58.1204150  12.0679590   5.8737520
  58.4081960  11.8133890   4.9970530  58.6327370  11.5156950   6.4643090
  58.1876510  12.9895690  13.2405720  59.1143820  12.7539960  13.2841680
  58.1726940  13.8167690  12.7591750  64.7554070  12.2165550  13.0646760
  65.5479390  11.7214780  12.8572720  65.0487220  12.8955690  13.6722370
  42.1070240  78.1860450  77.8180260  42.0264290  77.2715060  77.5471970
  41.6934660  78.6827520  77.1119970  40.2388280  79.9639470  79.6989530
  39.4630380  79.4839910  79.9888100  40.8901210  79.2845120  79.5245690
  34.2554110  80.2759280  80.5765290  33.4238990  80.0207990  80.9761800
  34.8635090  80.3470050  81.3123210  32.6646060  75.2361170  74.3607680
  31.7762760  75.5777140  74.2587560  32.9487250  75.0361490  73.4688510
  30.6279070  77.8366820  80.2447380  31.1995180  77.0689020  80.2451020
  30.6280610  78.1355580  79.3353990  40.7102440  75.4467040  79.9328620
  41.0867260  74.5738920  79.8202290  40.6121950  75.7825740  79.0419060
  34.8407450  73.8192670  75.3946060  34.9474200  74.7196400  75.7014820
  33.9299810  73.7710640  75.1040710  44.4926560  72.9417480  76.8656960
  45.3136180  72.4514050  76.9082440  44.5260640  73.5315140  77.6188800
  32.4890610  75.7411680  80.6398650  33.1700720  76.0050050  81.2586050
  32.1738660  74.9012550  80.9736660  36.6815180  76.7879040  79.7271240
  37.1893400  77.2860010  80.3676260  37.2128420  76.0114240  79.5510600
  44.7288040  74.8817860  79.6384500  44.0243610  75.1702750  80.2187610
  45.0900200  75.6917970  79.2784060  47.7974960  74.3272650  80.0293710
  46.8499870  74.3611630  80.1609140  48.1224950  75.1411600  80.4143070
  38.3294500  70.6269830  78.3249700  38.6369480  70.0716720  77.6085200
  37.3995200  70.7614290  78.1422690  40.7175260  78.6918660  75.0609820
  39.7904540  78.6256040  75.2898290  40.8700080  79.6298790  74.9465060
  40.7044340  74.9635660  72.0576980  39.7648010  75.1249620  72.1429440
  41.0227600  75.6821340  71.5112970  47.2257100  79.6454180  82.0356010
  46.3975730  79.7147270  81.5606140  47.8207580  80.2308490  81.5671840
  44.7472550  80.2538960  75.5645070  44.1284970  79.9158510  74.9171370
  44.7297000  79.6098720  76.2724260  36.3231900  79.2183400  77.8429550
  35.9188900  78.5060650  77.3475450  36.4095020  78.8736640  78.7317590
  42.9237250  79.4925770  72.5717820  43.3630530  78.6548200  72.4255640
  43.6365670  80.1255170  72.6581960  46.5054390  70.7468580  70.8858860
  46.1927050  70.8395410  71.7857930  47.2666860  71.3249610  70.8356290
  33.0236530  78.1128380  75.3436200  32.9034130  78.8390470  74.7317470
  32.7137420  77.3431290  74.8664110  35.4900190  71.4563450  78.7259870
  35.0468340  72.2372990  78.3944390  36.0485180  71.7793340  79.4330810
  38.6059010  71.0774150  73.6065700  37.9813190  71.0734020  74.3319010
  38.5189130  70.2105110  73.2101670  37.5276090  72.0010780  80.5849470
  37.8248420  72.9073610  80.5041490  38.0761650  71.5129560  79.9709040
  35.2814410  76.5797020  76.4541120  35.0555330  76.3634190  77.3587740
  34.5006940  77.0125480  76.1087090  42.5112170  76.5860390  75.0531770
  41.9121060  77.3096190  74.8695390  43.0591780  76.5237170  74.2708220
  41.1177040  75.2223930  77.0835050  41.5106610  75.5396130  76.2703740
  41.4793890  74.3435810  77.1979570  30.1541210  71.8124730  79.3065250
  29.8654260  72.3827590  80.0190230  30.8986970  71.3329180  79.6696480
  30.3411440  75.7544850  70.5167970  30.2586110  76.6975610  70.6582960
  29.9894500  75.6119760  69.6380320  41.7032180  77.8129680  81.1785830
  40.9713300  78.3216490  81.5275930  41.3056520  76.9959660  80.8774610
  38.1409570  74.4883880  79.5838320  38.1445630  74.0473830  78.7342860
  39.0360690  74.8101210  79.6910140  33.9911950  74.3710370  78.5432530
  33.6512000  74.8485600  79.2999580  33.2289270  73.9175490  78.1833630
  38.2029720  75.4895960  72.5745080  38.3242540  75.4482440  73.5230900
  37.8178230  76.3520110  72.4191810  42.1658090  73.2663360  80.5908770
  42.1830830  73.7172010  81.4350620  41.9173670  72.3669000  80.8042210
  37.2151220  77.7997100  71.9728380  36.6468120  77.3515350  71.3464290
  37.9240220  78.1589880  71.4393530  31.3058030  73.2929350  77.4597200
  31.0204950  72.9285020  78.2975820  31.2436890  72.5609810  76.8460340
  40.9796620  72.1858610  74.1810570  40.1661230  71.6871780  74.1055880
  40.7858570  73.0256860  73.7646920  43.6945010  76.5578260  72.4772730
  44.5824630  76.8695490  72.3024070  43.6650100  75.6850510  72.0853310
  45.9659280  77.8690100  71.9452590  45.8823000  78.3004320  71.0949030
  46.6853470  78.3288450  72.3779410  30.7988690  78.4288300  71.4193900
  31.6683540  78.7113100  71.7029820  30.3079010  79.2424170  71.3042710
  37.9623500  79.8161510  75.5402180  38.4186280  80.6266760  75.7662370
  37.6111710  79.4984650  76.3720670  33.8635280  70.1599160  76.0124700
  33.7349910  70.1517060  76.9609620  33.0397300  70.4982250  75.6615710
  32.7835200  80.2461770  73.5475960  32.1763150  80.9860670  73.5571260
  33.2584550  80.3361130  72.7214160  45.7230020  73.3669530  74.0320410
  45.0943180  73.4715200  73.3178640  45.2281940  73.5866310  74.8214290
  37.6914050  75.6455480  75.4478290  36.9830200  76.1141820  75.8891900
  37.9758530  74.9877490  76.0823480  41.7229480  72.3706140  76.8874080
  41.5997260  72.3892270  75.9383590  42.6714040  72.4185080  77.0072480
  35.8949070  73.9540560  72.8229000  36.7439600  74.3910710  72.7569190
  35.5280340  74.2660820  73.6501060  44.8158850  78.5253320  77.7360570
  43.8748990  78.5403550  77.9108260  45.1302920  77.7389280  78.1820870
  34.7940490  80.2072920  71.2964530  35.5603760  80.0954280  71.8589960
  34.8715180  79.5110890  70.6441300  33.4887250  77.6397990  71.9797420
  33.5690840  76.6925500  72.0914820  34.3807000  77.9704870  72.0858080
  36.8259520  80.2038050  73.2707170  37.2475940  80.0377920  74.1138560
  36.9510360  79.3938280  72.7762310  39.3387160  79.2275660  70.5184270
  39.8592820  78.5124680  70.1525420  39.9855560  79.8661530  70.8184780
  35.7218420  76.2771280  70.2165330  35.5207480  75.4138640  70.5778670
  35.5510470  76.1904640  69.2786930  43.2006730  71.0879510  72.7452210
  43.4809020  70.2447410  73.1011630  42.4272460  71.3202620  73.2590960
  34.5201220  73.3771900  70.2043210  34.8227120  73.3839330  69.2962360
  35.2595810  73.0269760  70.7010870  37.7386150  72.3206520  71.1899410
  37.3908150  71.6430510  70.6101860  37.9398920  71.8596030  72.0042800
  47.5787450  80.3256240  73.3556120  48.3406360  80.8952890  73.4615810
  47.5941820  79.7583440  74.1264430  31.0791790  78.8494170  77.5863780
  30.4240630  78.5805810  76.9423480  31.9169740  78.7398650  77.1365760
  44.0282230  73.6435460  71.8082270  44.4467110  73.4566440  70.9678930
  43.7218290  72.7914510  72.1185200  47.5271960  78.5559600  75.5058070
  47.1515560  77.7887530  75.0739360  46.7975080  78.9382300  75.9933000
  30.2929870  76.0593100  73.5289110  29.3893950  76.3223300  73.3540770
  30.7770490  76.3304270  72.7489070  46.8022920  76.7817090  78.8065310
  47.3260400  76.2879740  78.1755480  47.3882340  76.9167450  79.5512880
  32.8357080  75.1158640  71.4383490  33.5448780  74.6941860  70.9530770
  32.1197020  75.1833870  70.8066840  32.4831240  71.1697970  70.4786140
  33.2059370  71.7106910  70.7967360  32.7555760  70.8961390  69.6027680
  46.2922890  76.0390440  74.7457720  46.7882010  75.8061310  75.5306600
  46.0938960  75.2002280  74.3295360  32.1723430  70.4204160  80.3808760
  32.8199620  69.8701540  79.9403920  32.5925270  70.6747310  81.2024570
  47.7210050  74.6751390  77.2795400  47.6109330  74.5207430  78.2177670
  48.4817640  74.1472330  77.0370810  48.6100320  72.5059310  70.5201540
  49.5349630  72.3740490  70.3119830  48.5876110  72.5852130  71.4737990
  48.6838810  73.2769970  73.1458250  47.8890310  73.2115090  73.6751160
  48.8882090  74.2120610  73.1343600  40.5637670  70.9043750  81.5507990
  39.7809460  71.3789250  81.8304750  40.2700600  69.9998580  81.4421170
  45.1158740  71.6066850  79.5957080  45.5566830  71.5511950  78.7478680
  44.8466330  72.5224860  79.6667260  46.9797310  71.2382090  77.6065900
  46.9185710  70.2943310  77.4596920  47.7589340  71.3462180  78.1519360
  31.9078080  71.2091230  74.0721710  32.6657440  71.3220110  73.4985740
  31.4455250  72.0460430  74.0265140  38.4491890  73.3230500  77.0624020
  37.6366400  72.9487390  76.7219900  38.9533530  72.5675580  77.3645210
  42.9516870  69.9872950  78.3007090  43.5546240  70.5593160  78.7755610
  42.2109860  70.5512390  78.0780990  46.0951470  70.3894510  73.5747370
  46.2902100  71.2877960  73.8414800  45.3081340  70.1581590  74.0680320
  34.2803230  71.7355280  72.6123680  34.8095990  70.9485080  72.4831630
  34.9131550  72.4146470  72.8459210  36.4741070  71.4730420  75.6669070
  35.8443810  70.7717730  75.8339200  35.9346210  72.2334550  75.4502230
  42.1070240  78.1860450  59.0436770  42.0264290  77.2715060  58.7728480
  41.6934660  78.6827520  58.3376480  40.2388280  79.9639470  60.9246040
  39.4630380  79.4839910  61.2144610  40.8901210  79.2845120  60.7502200
  34.2554110  80.2759280  61.8021800  33.4238990  80.0207990  62.2018310
  34.8635090  80.3470050  62.5379720  32.6646060  75.2361170  55.5864190
  31.7762760  75.5777140  55.4844070  32.9487250  75.0361490  54.6945020
  30.6279070  77.8366820  61.4703890  31.1995180  77.0689020  61.4707530
  30.6280610  78.1355580  60.5610500  31.8703940  73.2451180  63.2572820
  31.6906780  72.3476930  63.5375580  31.4684020  73.7923050  63.9319770
  40.7102440  75.4467040  61.1585130  41.0867260  74.5738920  61.0458800
  40.6121950  75.7825740  60.2675570  34.8407450  73.8192670  56.6202570
  34.9474200  74.7196400  56.9271330  33.9299810  73.7710640  56.3297220
  44.4926560  72.9417480  58.0913470  45.3136180  72.4514050  58.1338950
  44.5260640  73.5315140  58.8445310  32.4890610  75.7411680  61.8655160
  33.1700720  76.0050050  62.4842560  32.1738660  74.9012550  62.1993170
  36.6815180  76.7879040  60.9527750  37.1893400  77.2860010  61.5932770
  37.2128420  76.0114240  60.7767110  48.7826110  74.9584230  64.6557100
  48.0778280  75.3465940  64.1372210  49.0484030  75.6534520  65.2578030
  34.9651280  71.4277600  65.2191170  34.9669720  71.9449990  64.4137070
  34.1355590  70.9507780  65.1961100  44.7288040  74.8817860  60.8641010
  44.0243610  75.1702750  61.4444120  45.0900200  75.6917970  60.5040570
  34.6466610  73.1387560  63.2261620  34.9883420  73.9829610  62.9315490
  33.7082420  73.2871300  63.3426960  47.7974960  74.3272650  61.2550220
  46.8499870  74.3611630  61.3865650  48.1224950  75.1411600  61.6399580
  38.3294500  70.6269830  59.5506210  38.6369480  70.0716720  58.8341710
  37.3995200  70.7614290  59.3679200  40.7175260  78.6918660  56.2866330
  39.7904540  78.6256040  56.5154800  40.8700080  79.6298790  56.1721570
  40.7044340  74.9635660  53.2833490  39.7648010  75.1249620  53.3685950
  41.0227600  75.6821340  52.7369480  47.2257100  79.6454180  63.2612520
  46.3975730  79.7147270  62.7862650  47.8207580  80.2308490  62.7928350
  44.7472550  80.2538960  56.7901580  44.1284970  79.9158510  56.1427880
  44.7297000  79.6098720  57.4980770  44.1899110  76.4323500  64.2067390
  43.7770290  77.2577210  64.4607380  43.4575060  75.8468540  64.0143750
  36.3231900  79.2183400  59.0686060  35.9188900  78.5060650  58.5731960
  36.4095020  78.8736640  59.9574100  35.0360520  75.9926610  62.8485100
  35.5875110  76.1021950  62.0738350  35.5504030  76.3664210  63.5640330
  42.9237250  79.4925770  53.7974330  43.3630530  78.6548200  53.6512150
  43.6365670  80.1255170  53.8838470  34.7103250  79.5145970  66.4590440
  34.5711020  80.3868770  66.8277840  33.8284610  79.1718780  66.3138380
  46.5054390  70.7468580  52.1115370  46.1927050  70.8395410  53.0114440
  47.2666860  71.3249610  52.0612800  33.0236530  78.1128380  56.5692710
  32.9034130  78.8390470  55.9573980  32.7137420  77.3431290  56.0920620
  47.7155680  75.4840080  68.0889510  47.0999950  75.9919750  67.5604970
  47.3952100  74.5838410  68.0315450  35.4900190  71.4563450  59.9516380
  35.0468340  72.2372990  59.6200900  36.0485180  71.7793340  60.6587320
  39.7770000  74.3231970  65.5551700  39.3149370  74.5314990  66.3671640
  39.3748110  73.5091320  65.2522370  44.7774510  75.5440920  66.6848360
  43.9268100  75.2446670  67.0057430  44.6176300  75.7882930  65.7732180
  41.8724220  77.0442670  68.7847150  42.1977630  76.2106420  68.4449380
  42.6604550  77.5671190  68.9325480  38.6059010  71.0774150  54.8322210
  37.9813190  71.0734020  55.5575520  38.5189130  70.2105110  54.4358180
  37.5276090  72.0010780  61.8105980  37.8248420  72.9073610  61.7298000
  38.0761650  71.5129560  61.1965550  35.2814410  76.5797020  57.6797630
  35.0555330  76.3634190  58.5844250  34.5006940  77.0125480  57.3343600
  42.5112170  76.5860390  56.2788280  41.9121060  77.3096190  56.0951900
  43.0591780  76.5237170  55.4964730  37.7213620  77.4782600  68.3457900
  37.6257220  76.5377330  68.1958300  38.5645600  77.6997670  67.9505970
  41.1177040  75.2223930  58.3091560  41.5106610  75.5396130  57.4960250
  41.4793890  74.3435810  58.4236080  32.8524160  73.8896270  66.4991680
  32.4587550  74.7371480  66.7064460  32.1642560  73.2522640  66.6900320
  39.4269210  73.9731240  69.5688420  38.7367530  73.7803440  70.2034510
  40.1701510  74.2565880  70.1012720  30.1541210  71.8124730  60.5321760
  29.8654260  72.3827590  61.2446740  30.8986970  71.3329180  60.8952990
  30.3411440  75.7544850  51.7424480  30.2586110  76.6975610  51.8839470
  29.9894500  75.6119760  50.8636830  41.7032180  77.8129680  62.4042340
  40.9713300  78.3216490  62.7532440  41.3056520  76.9959660  62.1031120
  38.1409570  74.4883880  60.8094830  38.1445630  74.0473830  59.9599370
  39.0360690  74.8101210  60.9166650  33.9911950  74.3710370  59.7689040
  33.6512000  74.8485600  60.5256090  33.2289270  73.9175490  59.4090140
  38.2029720  75.4895960  53.8001590  38.3242540  75.4482440  54.7487410
  37.8178230  76.3520110  53.6448320  42.1658090  73.2663360  61.8165280
  42.1830830  73.7172010  62.6607130  41.9173670  72.3669000  62.0298720
  37.2151220  77.7997100  53.1984890  36.6468120  77.3515350  52.5720800
  37.9240220  78.1589880  52.6650040  45.5928840  70.6795540  67.6551660
  45.9174610  69.9485200  68.1809640  45.6285350  70.3609180  66.7532650
  38.4417540  78.5485660  62.5560240  38.8087670  78.0744230  63.3021580
  38.2522600  79.4227230  62.8968580  31.3058030  73.2929350  58.6853710
  31.0204950  72.9285020  59.5232330  31.2436890  72.5609810  58.0716850
  36.2316910  77.5894300  64.8744450  35.9273980  78.4686280  65.0994810
  37.1863370  77.6494090  64.9101890  40.9796620  72.1858610  55.4067080
  40.1661230  71.6871780  55.3312390  40.7858570  73.0256860  54.9903430
  40.9005480  80.8629710  67.1506690  40.8342790  79.9425380  66.8964280
  40.2710620  80.9605150  67.8651330  43.6945010  76.5578260  53.7029240
  44.5824630  76.8695490  53.5280580  43.6650100  75.6850510  53.3109820
  32.2880640  78.4297040  66.0215810  31.9295580  79.0950890  66.6089150
  31.9935200  77.5980590  66.3928430  35.4893760  78.8881280  68.9055360
  35.1893900  79.0338460  68.0083180  36.2605000  78.3286570  68.8128750
  45.9659280  77.8690100  53.1709100  45.8823000  78.3004320  52.3205540
  46.6853470  78.3288450  53.6035920  47.0433420  80.3257620  66.2479070
  46.3181610  80.9186400  66.0508460  47.5708880  80.3181160  65.4492440
  30.7988690  78.4288300  52.6450410  31.6683540  78.7113100  52.9286330
  30.3079010  79.2424170  52.5299220  37.9623500  79.8161510  56.7658690
  38.4186280  80.6266760  56.9918880  37.6111710  79.4984650  57.5977180
  33.8635280  70.1599160  57.2381210  33.7349910  70.1517060  58.1866130
  33.0397300  70.4982250  56.8872220  30.8629210  71.9190280  66.6987910
  30.1487730  72.1187200  67.3040520  31.2824250  71.1429850  67.0702710
  32.7835200  80.2461770  54.7732470  32.1763150  80.9860670  54.7827770
  33.2584550  80.3361130  53.9470670  42.3567990  74.4112590  64.4489360
  42.7248810  73.5907800  64.7768930  41.4966190  74.4714480  64.8645010
  45.7230020  73.3669530  55.2576920  45.0943180  73.4715200  54.5435150
  45.2281940  73.5866310  56.0470800  37.6914050  75.6455480  56.6734800
  36.9830200  76.1141820  57.1148410  37.9758530  74.9877490  57.3079990
  39.3169980  77.0652180  64.6727330  39.8155230  77.5398000  65.3379180
  39.4592930  76.1415700  64.8797360  41.7229480  72.3706140  58.1130590
  41.5997260  72.3892270  57.1640100  42.6714040  72.4185080  58.2328990
  35.8949070  73.9540560  54.0485510  36.7439600  74.3910710  53.9825700
  35.5280340  74.2660820  54.8757570  46.5236840  73.2820140  65.5155720
  46.0210440  74.0225540  65.8549530  47.3393500  73.6704140  65.1992510
  44.8158850  78.5253320  58.9617080  43.8748990  78.5403550  59.1364770
  45.1302920  77.7389280  59.4077380  34.7940490  80.2072920  52.5221040
  35.5603760  80.0954280  53.0846470  34.8715180  79.5110890  51.8697810
  33.4887250  77.6397990  53.2053930  33.5690840  76.6925500  53.3171330
  34.3807000  77.9704870  53.3114590  31.0158050  79.4612910  68.4410100
  31.5197070  78.8820190  69.0126330  30.2765470  79.7453140  68.9786470
  33.0481130  77.6042500  69.3360170  33.0886470  77.3056370  70.2445400
  33.9026630  78.0050110  69.1767690  36.8259520  80.2038050  54.4963680
  37.2475940  80.0377920  55.3395070  36.9510360  79.3938280  54.0018820
  34.9886940  76.1834600  67.3034660  34.4583400  75.6925550  66.6758000
  35.6575010  76.6118800  66.7692590  39.3387160  79.2275660  51.7440780
  39.8592820  78.5124680  51.3781930  39.9855560  79.8661530  52.0441290
  43.8865000  80.6504060  67.0675850  44.3006020  80.8049140  67.9166270
  42.9516000  80.7759280  67.2301630  44.3587170  77.9900220  69.0715000
  44.9407940  77.2352540  68.9835480  44.5348940  78.5207660  68.2946480
  35.4759240  73.1496970  67.3831950  35.3816110  72.5317720  66.6582820
  34.8956630  73.8763260  67.1561860  38.2420680  71.7070210  64.4159340
  37.7937980  71.7294470  63.5704890  37.6085880  71.3089230  65.0129640
  40.9844130  78.3340720  66.4209620  41.1040340  77.7381860  67.1604460
  41.8438130  78.3710410  66.0010920  43.3232030  78.8877910  64.9972130
  42.7967250  79.4120530  64.3937270  43.6663370  79.5205300  65.6281860
  35.7218420  76.2771280  51.4421840  35.5207480  75.4138640  51.8035180
  35.5510470  76.1904640  50.5043440  37.7512900  74.8762070  67.6785440
  38.3412590  74.5677920  68.3663260  36.9333140  74.4041820  67.8345340
  42.5706330  74.4927880  67.9118460  41.8821850  73.8309420  67.8468450
  43.2912350  74.0466150  68.3566920  43.2006730  71.0879510  53.9708720
  43.4809020  70.2447410  54.3268140  42.4272460  71.3202620  54.4847470
  34.5201220  73.3771900  51.4299720  34.8227120  73.3839330  50.5218870
  35.2595810  73.0269760  51.9267380  37.7386150  72.3206520  52.4155920
  37.3908150  71.6430510  51.8358370  37.9398920  71.8596030  53.2299310
  47.5787450  80.3256240  54.5812630  48.3406360  80.8952890  54.6872320
  47.5941820  79.7583440  55.3520940  31.0791790  78.8494170  58.8120290
  30.4240630  78.5805810  58.1679990  31.9169740  78.7398650  58.3622270
  44.0282230  73.6435460  53.0338780  44.4467110  73.4566440  52.1935440
  43.7218290  72.7914510  53.3441710  47.5271960  78.5559600  56.7314580
  47.1515560  77.7887530  56.2995870  46.7975080  78.9382300  57.2189510
  32.1167720  79.2346740  63.3523630  32.4840760  79.1474140  64.2319650
  31.5478540  78.4713290  63.2530490  46.9171580  77.7031120  66.3654100
  46.6857670  77.4743870  65.4652050  47.1776130  78.6230670  66.3198990
  31.6683720  76.1455830  67.2582050  30.7739770  76.1122590  67.5975760
  32.2081270  76.3442620  68.0233300  45.3559650  72.9287550  69.1433800
  46.2329830  72.9370950  69.5267800  45.3680490  72.1918390  68.5326150
  30.2929870  76.0593100  54.7545620  29.3893950  76.3223300  54.5797280
  30.7770490  76.3304270  53.9745580  46.8022920  76.7817090  60.0321820
  47.3260400  76.2879740  59.4011990  47.3882340  76.9167450  60.7769390
  46.9812640  76.8656960  63.5541370  46.0315350  76.8320500  63.6686360
  47.1625650  77.7757070  63.3191140  32.8357080  75.1158640  52.6640000
  33.5448780  74.6941860  52.1787280  32.1197020  75.1833870  52.0323350
  32.4831240  71.1697970  51.7042650  33.2059370  71.7106910  52.0223870
  32.7555760  70.8961390  50.8284190  46.2922890  76.0390440  55.9714230
  46.7882010  75.8061310  56.7563110  46.0938960  75.2002280  55.5551870
  32.1723430  70.4204160  61.6065270  32.8199620  69.8701540  61.1660430
  32.5925270  70.6747310  62.4281080  47.7210050  74.6751390  58.5051910
  47.6109330  74.5207430  59.4434180  48.4817640  74.1472330  58.2627320
  46.0675770  70.6145520  64.9634910  46.7047990  71.2279660  65.3294100
  46.2150660  70.6506180  64.0184140  48.6100320  72.5059310  51.7458050
  49.5349630  72.3740490  51.5376340  48.5876110  72.5852130  52.6994500
  48.6838810  73.2769970  54.3714760  47.8890310  73.2115090  54.9007670
  48.8882090  74.2120610  54.3600110  31.9255430  70.5759830  64.3490590
  31.5770250  71.0323650  65.1148770  31.5943130  69.6816960  64.4313020
  39.4380250  71.7671710  67.8710010  39.3769140  72.3593540  68.6205420
  40.3780630  71.6597670  67.7260270  42.0754810  71.4241770  67.5102300
  42.6895220  71.7421060  66.8483380  42.6204370  70.9390360  68.1298160
  32.5976070  70.1036030  67.6241360  33.1459060  69.9224080  66.8607470
  32.6631380  69.3130140  68.1597670  42.8162850  69.9873910  63.8371590
  41.9422690  70.3209020  63.6344520  42.7073600  69.5147090  64.6623460
  43.7234830  72.1944780  65.2213310  43.3948190  71.3796540  64.8415040
  44.6717130  72.1514590  65.0979000  40.5637670  70.9043750  62.7764500
  39.7809460  71.3789250  63.0561260  40.2700600  69.9998580  62.6677680
  45.1158740  71.6066850  60.8213590  45.5566830  71.5511950  59.9735190
  44.8466330  72.5224860  60.8923770  46.9797310  71.2382090  58.8322410
  46.9185710  70.2943310  58.6853430  47.7589340  71.3462180  59.3775870
  31.9078080  71.2091230  55.2978220  32.6657440  71.3220110  54.7242250
  31.4455250  72.0460430  55.2521650  38.4491890  73.3230500  58.2880530
  37.6366400  72.9487390  57.9476410  38.9533530  72.5675580  58.5901720
  42.9516870  69.9872950  59.5263600  43.5546240  70.5593160  60.0012120
  42.2109860  70.5512390  59.3037500  46.0951470  70.3894510  54.8003880
  46.2902100  71.2877960  55.0671310  45.3081340  70.1581590  55.2936830
  34.2803230  71.7355280  53.8380190  34.8095990  70.9485080  53.7088140
  34.9131550  72.4146470  54.0715720  36.4741070  71.4730420  56.8925580
  35.8443810  70.7717730  57.0595710  35.9346210  72.2334550  56.6758740
  36.5996630  70.7514400  69.3278070  36.3180900  71.2548000  68.5638890
  36.9816330  69.9536150  68.9620200  43.2012090  70.1667980  69.9058540
  43.0877540  70.4862590  70.8010060  44.0181830  70.5680490  69.6095820
  42.1070240  78.1860450  40.2693280  42.0264290  77.2715060  39.9984990
  41.6934660  78.6827520  39.5632990  40.2388280  79.9639470  42.1502550
  39.4630380  79.4839910  42.4401120  40.8901210  79.2845120  41.9758710
  34.2554110  80.2759280  43.0278310  33.4238990  80.0207990  43.4274820
  34.8635090  80.3470050  43.7636230  32.6646060  75.2361170  36.8120700
  31.7762760  75.5777140  36.7100580  32.9487250  75.0361490  35.9201530
  30.6279070  77.8366820  42.6960400  31.1995180  77.0689020  42.6964040
  30.6280610  78.1355580  41.7867010  31.8703940  73.2451180  44.4829330
  31.6906780  72.3476930  44.7632090  31.4684020  73.7923050  45.1576280
  40.7102440  75.4467040  42.3841640  41.0867260  74.5738920  42.2715310
  40.6121950  75.7825740  41.4932080  34.8407450  73.8192670  37.8459080
  34.9474200  74.7196400  38.1527840  33.9299810  73.7710640  37.5553730
  44.4926560  72.9417480  39.3169980  45.3136180  72.4514050  39.3595460
  44.5260640  73.5315140  40.0701820  32.4890610  75.7411680  43.0911670
  33.1700720  76.0050050  43.7099070  32.1738660  74.9012550  43.4249680
  36.6815180  76.7879040  42.1784260  37.1893400  77.2860010  42.8189280
  37.2128420  76.0114240  42.0023620  48.7826110  74.9584230  45.8813610
  48.0778280  75.3465940  45.3628720  49.0484030  75.6534520  46.4834540
  34.9651280  71.4277600  46.4447680  34.9669720  71.9449990  45.6393580
  34.1355590  70.9507780  46.4217610  44.7288040  74.8817860  42.0897520
  44.0243610  75.1702750  42.6700630  45.0900200  75.6917970  41.7297080
  34.6466610  73.1387560  44.4518130  34.9883420  73.9829610  44.1572000
  33.7082420  73.2871300  44.5683470  47.7974960  74.3272650  42.4806730
  46.8499870  74.3611630  42.6122160  48.1224950  75.1411600  42.8656090
  38.3294500  70.6269830  40.7762720  38.6369480  70.0716720  40.0598220
  37.3995200  70.7614290  40.5935710  40.7175260  78.6918660  37.5122840
  39.7904540  78.6256040  37.7411310  40.8700080  79.6298790  37.3978080
  40.7044340  74.9635660  34.5090000  39.7648010  75.1249620  34.5942460
  41.0227600  75.6821340  33.9625990  47.2257100  79.6454180  44.4869030
  46.3975730  79.7147270  44.0119160  47.8207580  80.2308490  44.0184860
  44.7472550  80.2538960  38.0158090  44.1284970  79.9158510  37.3684390
  44.7297000  79.6098720  38.7237280  44.1899110  76.4323500  45.4323900
  43.7770290  77.2577210  45.6863890  43.4575060  75.8468540  45.2400260
  36.3231900  79.2183400  40.2942570  35.9188900  78.5060650  39.7988470
  36.4095020  78.8736640  41.1830610  35.0360520  75.9926610  44.0741610
  35.5875110  76.1021950  43.2994860  35.5504030  76.3664210  44.7896840
  42.9237250  79.4925770  35.0230840  43.3630530  78.6548200  34.8768660
  43.6365670  80.1255170  35.1094980  34.7103250  79.5145970  47.6846950
  34.5711020  80.3868770  48.0534350  33.8284610  79.1718780  47.5394890
  46.5054390  70.7468580  33.3371880  46.1927050  70.8395410  34.2370950
  47.2666860  71.3249610  33.2869310  33.0236530  78.1128380  37.7949220
  32.9034130  78.8390470  37.1830490  32.7137420  77.3431290  37.3177130
  47.7155680  75.4840080  49.3146020  47.0999950  75.9919750  48.7861480
  47.3952100  74.5838410  49.2571960  35.4900190  71.4563450  41.1772890
  35.0468340  72.2372990  40.8457410  36.0485180  71.7793340  41.8843830
  39.7770000  74.3231970  46.7808210  39.3149370  74.5314990  47.5928150
  39.3748110  73.5091320  46.4778880  44.7774510  75.5440920  47.9104870
  43.9268100  75.2446670  48.2313940  44.6176300  75.7882930  46.9988690
  41.8724220  77.0442670  50.0103660  42.1977630  76.2106420  49.6705890
  42.6604550  77.5671190  50.1581990  38.6059010  71.0774150  36.0578720
  37.9813190  71.0734020  36.7832030  38.5189130  70.2105110  35.6614690
  37.5276090  72.0010780  43.0362490  37.8248420  72.9073610  42.9554510
  38.0761650  71.5129560  42.4222060  35.2814410  76.5797020  38.9054140
  35.0555330  76.3634190  39.8100760  34.5006940  77.0125480  38.5600110
  42.5112170  76.5860390  37.5044790  41.9121060  77.3096190  37.3208410
  43.0591780  76.5237170  36.7221240  37.7213620  77.4782600  49.5714410
  37.6257220  76.5377330  49.4214810  38.5645600  77.6997670  49.1762480
  41.1177040  75.2223930  39.5348070  41.5106610  75.5396130  38.7216760
  41.4793890  74.3435810  39.6492590  32.8524160  73.8896270  47.7248190
  32.4587550  74.7371480  47.9320970  32.1642560  73.2522640  47.9156830
  39.4269210  73.9731240  50.7944930  38.7367530  73.7803440  51.4291020
  40.1701510  74.2565880  51.3269230  30.1541210  71.8124730  41.7578270
  29.8654260  72.3827590  42.4703250  30.8986970  71.3329180  42.1209500
  30.3411440  75.7544850  32.9680990  30.2586110  76.6975610  33.1095980
  29.9894500  75.6119760  32.0893340  41.7032180  77.8129680  43.6298850
  40.9713300  78.3216490  43.9788950  41.3056520  76.9959660  43.3287630
  38.1409570  74.4883880  42.0351340  38.1445630  74.0473830  41.1855880
  39.0360690  74.8101210  42.1423160  33.9911950  74.3710370  40.9945550
  33.6512000  74.8485600  41.7512600  33.2289270  73.9175490  40.6346650
  38.2029720  75.4895960  35.0258100  38.3242540  75.4482440  35.9743920
  37.8178230  76.3520110  34.8704830  42.1658090  73.2663360  43.0421790
  42.1830830  73.7172010  43.8863640  41.9173670  72.3669000  43.2555230
  37.2151220  77.7997100  34.4241400  36.6468120  77.3515350  33.7977310
  37.9240220  78.1589880  33.8906550  45.5928840  70.6795540  48.8808170
  45.9174610  69.9485200  49.4066150  45.6285350  70.3609180  47.9789160
  38.4417540  78.5485660  43.7816750  38.8087670  78.0744230  44.5278090
  38.2522600  79.4227230  44.1225090  31.3058030  73.2929350  39.9110220
  31.0204950  72.9285020  40.7488840  31.2436890  72.5609810  39.2973360
  36.2316910  77.5894300  46.1000960  35.9273980  78.4686280  46.3251320
  37.1863370  77.6494090  46.1358400  40.9796620  72.1858610  36.6323590
  40.1661230  71.6871780  36.5568900  40.7858570  73.0256860  36.2159940
  40.9005480  80.8629710  48.3763200  40.8342790  79.9425380  48.1220790
  40.2710620  80.9605150  49.0907840  43.6945010  76.5578260  34.9285750
  44.5824630  76.8695490  34.7537090  43.6650100  75.6850510  34.5366330
  32.2880640  78.4297040  47.2472320  31.9295580  79.0950890  47.8345660
  31.9935200  77.5980590  47.6184940  35.4893760  78.8881280  50.1311870
  35.1893900  79.0338460  49.2339690  36.2605000  78.3286570  50.0385260
  45.9659280  77.8690100  34.3965610  45.8823000  78.3004320  33.5462050
  46.6853470  78.3288450  34.8292430  47.0433420  80.3257620  47.4735580
  46.3181610  80.9186400  47.2764970  47.5708880  80.3181160  46.6748950
  30.7988690  78.4288300  33.8706920  31.6683540  78.7113100  34.1542840
  30.3079010  79.2424170  33.7555730  37.9623500  79.8161510  37.9915200
  38.4186280  80.6266760  38.2175390  37.6111710  79.4984650  38.8233690
  33.8635280  70.1599160  38.4637720  33.7349910  70.1517060  39.4122640
  33.0397300  70.4982250  38.1128730  30.8629210  71.9190280  47.9244420
  30.1487730  72.1187200  48.5297030  31.2824250  71.1429850  48.2959220
  32.7835200  80.2461770  35.9988980  32.1763150  80.9860670  36.0084280
  33.2584550  80.3361130  35.1727180  42.3567990  74.4112590  45.6745870
  42.7248810  73.5907800  46.0025440  41.4966190  74.4714480  46.0901520
  45.7230020  73.3669530  36.4833430  45.0943180  73.4715200  35.7691660
  45.2281940  73.5866310  37.2727310  37.6914050  75.6455480  37.8991310
  36.9830200  76.1141820  38.3404920  37.9758530  74.9877490  38.5336500
  39.3169980  77.0652180  45.8983840  39.8155230  77.5398000  46.5635690
  39.4592930  76.1415700  46.1053870  41.7229480  72.3706140  39.3387100
  41.5997260  72.3892270  38.3896610  42.6714040  72.4185080  39.4585500
  35.8949070  73.9540560  35.2742020  36.7439600  74.3910710  35.2082210
  35.5280340  74.2660820  36.1014080  46.5236840  73.2820140  46.7412230
  46.0210440  74.0225540  47.0806040  47.3393500  73.6704140  46.4249020
  44.8158850  78.5253320  40.1873590  43.8748990  78.5403550  40.3621280
  45.1302920  77.7389280  40.6333890  34.7940490  80.2072920  33.7477550
  35.5603760  80.0954280  34.3102980  34.8715180  79.5110890  33.0954320
  33.4887250  77.6397990  34.4310440  33.5690840  76.6925500  34.5427840
  34.3807000  77.9704870  34.5371100  31.0158050  79.4612910  49.6666610
  31.5197070  78.8820190  50.2382840  30.2765470  79.7453140  50.2042980
  33.0481130  77.6042500  50.5616680  33.0886470  77.3056370  51.4701910
  33.9026630  78.0050110  50.4024200  36.8259520  80.2038050  35.7220190
  37.2475940  80.0377920  36.5651580  36.9510360  79.3938280  35.2275330
  34.9886940  76.1834600  48.5291170  34.4583400  75.6925550  47.9014510
  35.6575010  76.6118800  47.9949100  39.3387160  79.2275660  32.9697290
  39.8592820  78.5124680  32.6038440  39.9855560  79.8661530  33.2697800
  43.8865000  80.6504060  48.2932360  44.3006020  80.8049140  49.1422780
  42.9516000  80.7759280  48.4558140  44.3587170  77.9900220  50.2971510
  44.9407940  77.2352540  50.2091990  44.5348940  78.5207660  49.5202990
  35.4759240  73.1496970  48.6088460  35.3816110  72.5317720  47.8839330
  34.8956630  73.8763260  48.3818370  38.2420680  71.7070210  45.6415850
  37.7937980  71.7294470  44.7961400  37.6085880  71.3089230  46.2386150
  40.9844130  78.3340720  47.6466130  41.1040340  77.7381860  48.3860970
  41.8438130  78.3710410  47.2267430  43.3232030  78.8877910  46.2228640
  42.7967250  79.4120530  45.6193780  43.6663370  79.5205300  46.8538370
  35.7218420  76.2771280  32.6678350  35.5207480  75.4138640  33.0291690
  35.5510470  76.1904640  31.7299950  37.7512900  74.8762070  48.9041950
  38.3412590  74.5677920  49.5919770  36.9333140  74.4041820  49.0601850
  42.5706330  74.4927880  49.1374970  41.8821850  73.8309420  49.0724960
  43.2912350  74.0466150  49.5823430  43.2006730  71.0879510  35.1965230
  43.4809020  70.2447410  35.5524650  42.4272460  71.3202620  35.7103980
  34.5201220  73.3771900  32.6556230  34.8227120  73.3839330  31.7475380
  35.2595810  73.0269760  33.1523890  37.7386150  72.3206520  33.6412430
  37.3908150  71.6430510  33.0614880  37.9398920  71.8596030  34.4555820
  47.5787450  80.3256240  35.8069140  48.3406360  80.8952890  35.9128830
  47.5941820  79.7583440  36.5777450  31.0791790  78.8494170  40.0376800
  30.4240630  78.5805810  39.3936500  31.9169740  78.7398650  39.5878780
  44.0282230  73.6435460  34.2595290  44.4467110  73.4566440  33.4191950
  43.7218290  72.7914510  34.5698220  47.5271960  78.5559600  37.9571090
  47.1515560  77.7887530  37.5252380  46.7975080  78.9382300  38.4446020
  32.1167720  79.2346740  44.5780140  32.4840760  79.1474140  45.4576160
  31.5478540  78.4713290  44.4787000  46.9171580  77.7031120  47.5910610
  46.6857670  77.4743870  46.6908560  47.1776130  78.6230670  47.5455500
  31.6683720  76.1455830  48.4838560  30.7739770  76.1122590  48.8232270
  32.2081270  76.3442620  49.2489810  45.3559650  72.9287550  50.3690310
  46.2329830  72.9370950  50.7524310  45.3680490  72.1918390  49.7582660
  30.2929870  76.0593100  35.9802130  29.3893950  76.3223300  35.8053790
  30.7770490  76.3304270  35.2002090  46.8022920  76.7817090  41.2578330
  47.3260400  76.2879740  40.6268500  47.3882340  76.9167450  42.0025900
  46.9812640  76.8656960  44.7797880  46.0315350  76.8320500  44.8942870
  47.1625650  77.7757070  44.5447650  32.8357080  75.1158640  33.8896510
  33.5448780  74.6941860  33.4043790  32.1197020  75.1833870  33.2579860
  32.4831240  71.1697970  32.9299160  33.2059370  71.7106910  33.2480380
  32.7555760  70.8961390  32.0540700  46.2922890  76.0390440  37.1970740
  46.7882010  75.8061310  37.9819620  46.0938960  75.2002280  36.7808380
  32.1723430  70.4204160  42.8321780  32.8199620  69.8701540  42.3916940
  32.5925270  70.6747310  43.6537590  47.7210050  74.6751390  39.7308420
  47.6109330  74.5207430  40.6690690  48.4817640  74.1472330  39.4883830
  46.0675770  70.6145520  46.1891420  46.7047990  71.2279660  46.5550610
  46.2150660  70.6506180  45.2440650  48.6100320  72.5059310  32.9714560
  49.5349630  72.3740490  32.7632850  48.5876110  72.5852130  33.9251010
  48.6838810  73.2769970  35.5971270  47.8890310  73.2115090  36.1264180
  48.8882090  74.2120610  35.5856620  31.9255430  70.5759830  45.5747100
  31.5770250  71.0323650  46.3405280  31.5943130  69.6816960  45.6569530
  39.4380250  71.7671710  49.0966520  39.3769140  72.3593540  49.8461930
  40.3780630  71.6597670  48.9516780  42.0754810  71.4241770  48.7358810
  42.6895220  71.7421060  48.0739890  42.6204370  70.9390360  49.3554670
  32.5976070  70.1036030  48.8497870  33.1459060  69.9224080  48.0863980
  32.6631380  69.3130140  49.3854180  42.8162850  69.9873910  45.0628100
  41.9422690  70.3209020  44.8601030  42.7073600  69.5147090  45.8879970
  43.7234830  72.1944780  46.4469820  43.3948190  71.3796540  46.0671550
  44.6717130  72.1514590  46.3235510  40.5637670  70.9043750  44.0021010
  39.7809460  71.3789250  44.2817770  40.2700600  69.9998580  43.8934190
  45.1158740  71.6066850  42.0470100  45.5566830  71.5511950  41.1991700
  44.8466330  72.5224860  42.1180280  46.9797310  71.2382090  40.0578920
  46.9185710  70.2943310  39.9109940  47.7589340  71.3462180  40.6032380
  31.9078080  71.2091230  36.5234730  32.6657440  71.3220110  35.9498760
  31.4455250  72.0460430  36.4778160  38.4491890  73.3230500  39.5137040
  37.6366400  72.9487390  39.1732920  38.9533530  72.5675580  39.8158230
  42.9516870  69.9872950  40.7520110  43.5546240  70.5593160  41.2268630
  42.2109860  70.5512390  40.5294010  46.0951470  70.3894510  36.0260390
  46.2902100  71.2877960  36.2927820  45.3081340  70.1581590  36.5193340
  34.2803230  71.7355280  35.0636700  34.8095990  70.9485080  34.9344650
  34.9131550  72.4146470  35.2972230  36.4741070  71.4730420  38.1182090
  35.8443810  70.7717730  38.2852220  35.9346210  72.2334550  37.9015250
  36.5996630  70.7514400  50.5534580  36.3180900  71.2548000  49.7895400
  36.9816330  69.9536150  50.1876710  43.2012090  70.1667980  51.1315050
  43.0877540  70.4862590  52.0266570  44.0181830  70.5680490  50.8352330
  42.1070240  78.1860450  21.4949790  42.0264290  77.2715060  21.2241500
  41.6934660  78.6827520  20.7889500  40.2388280  79.9639470  23.3759060
  39.4630380  79.4839910  23.6657630  40.8901210  79.2845120  23.2015220
  34.2554110  80.2759280  24.2534820  33.4238990  80.0207990  24.6531330
  34.8635090  80.3470050  24.9892740  32.6646060  75.2361170  18.0377210
  31.7762760  75.5777140  17.9357090  32.9487250  75.0361490  17.1458040
  30.6279070  77.8366820  23.9216910  31.1995180  77.0689020  23.9220550
  30.6280610  78.1355580  23.0123520  31.8703940  73.2451180  25.7085840
  31.6906780  72.3476930  25.9888600  31.4684020  73.7923050  26.3832790
  40.7102440  75.4467040  23.6098150  41.0867260  74.5738920  23.4971820
  40.6121950  75.7825740  22.7188590  34.8407450  73.8192670  19.0715590
  34.9474200  74.7196400  19.3784350  33.9299810  73.7710640  18.7810240
  44.4926560  72.9417480  20.5426490  45.3136180  72.4514050  20.5851970
  44.5260640  73.5315140  21.2958330  32.4890610  75.7411680  24.3168180
  33.1700720  76.0050050  24.9355580  32.1738660  74.9012550  24.6506190
  36.6815180  76.7879040  23.4040770  37.1893400  77.2860010  24.0445790
  37.2128420  76.0114240  23.2280130  48.7826110  74.9584230  27.1070120
  48.0778280  75.3465940  26.5885230  49.0484030  75.6534520  27.7091050
  34.9651280  71.4277600  27.6704190  34.9669720  71.9449990  26.8650090
  34.1355590  70.9507780  27.6474120  44.7288040  74.8817860  23.3154030
  44.0243610  75.1702750  23.8957140  45.0900200  75.6917970  22.9553590
  34.6466610  73.1387560  25.6774640  34.9883420  73.9829610  25.3828510
  33.7082420  73.2871300  25.7939980  47.7974960  74.3272650  23.7063240
  46.8499870  74.3611630  23.8378670  48.1224950  75.1411600  24.0912600
  38.3294500  70.6269830  22.0019230  38.6369480  70.0716720  21.2854730
  37.3995200  70.7614290  21.8192220  40.7175260  78.6918660  18.7379350
  39.7904540  78.6256040  18.9667820  40.8700080  79.6298790  18.6234590
  40.7044340  74.9635660  15.7346510  39.7648010  75.1249620  15.8198970
  41.0227600  75.6821340  15.1882500  47.2257100  79.6454180  25.7125540
  46.3975730  79.7147270  25.2375670  47.8207580  80.2308490  25.2441370
  44.7472550  80.2538960  19.2414600  44.1284970  79.9158510  18.5940900
  44.7297000  79.6098720  19.9493790  44.1899110  76.4323500  26.6580410
  43.7770290  77.2577210  26.9120400  43.4575060  75.8468540  26.4656770
  36.3231900  79.2183400  21.5199080  35.9188900  78.5060650  21.0244980
  36.4095020  78.8736640  22.4087120  35.0360520  75.9926610  25.2998120
  35.5875110  76.1021950  24.5251370  35.5504030  76.3664210  26.0153350
  42.9237250  79.4925770  16.2487350  43.3630530  78.6548200  16.1025170
  43.6365670  80.1255170  16.3351490  34.7103250  79.5145970  28.9103460
  34.5711020  80.3868770  29.2790860  33.8284610  79.1718780  28.7651400
  46.5054390  70.7468580  14.5628390  46.1927050  70.8395410  15.4627460
  47.2666860  71.3249610  14.5125820  33.0236530  78.1128380  19.0205730
  32.9034130  78.8390470  18.4087000  32.7137420  77.3431290  18.5433640
  47.7155680  75.4840080  30.5402530  47.0999950  75.9919750  30.0117990
  47.3952100  74.5838410  30.4828470  35.4900190  71.4563450  22.4029400
  35.0468340  72.2372990  22.0713920  36.0485180  71.7793340  23.1100340
  39.7770000  74.3231970  28.0064720  39.3149370  74.5314990  28.8184660
  39.3748110  73.5091320  27.7035390  44.7774510  75.5440920  29.1361380
  43.9268100  75.2446670  29.4570450  44.6176300  75.7882930  28.2245200
  41.8724220  77.0442670  31.2360170  42.1977630  76.2106420  30.8962400
  42.6604550  77.5671190  31.3838500  38.6059010  71.0774150  17.2835230
  37.9813190  71.0734020  18.0088540  38.5189130  70.2105110  16.8871200
  37.5276090  72.0010780  24.2619000  37.8248420  72.9073610  24.1811020
  38.0761650  71.5129560  23.6478570  35.2814410  76.5797020  20.1310650
  35.0555330  76.3634190  21.0357270  34.5006940  77.0125480  19.7856620
  42.5112170  76.5860390  18.7301300  41.9121060  77.3096190  18.5464920
  43.0591780  76.5237170  17.9477750  37.7213620  77.4782600  30.7970920
  37.6257220  76.5377330  30.6471320  38.5645600  77.6997670  30.4018990
  41.1177040  75.2223930  20.7604580  41.5106610  75.5396130  19.9473270
  41.4793890  74.3435810  20.8749100  32.8524160  73.8896270  28.9504700
  32.4587550  74.7371480  29.1577480  32.1642560  73.2522640  29.1413340
  39.4269210  73.9731240  32.0201440  38.7367530  73.7803440  32.6547530
  40.1701510  74.2565880  32.5525740  30.1541210  71.8124730  22.9834780
  29.8654260  72.3827590  23.6959760  30.8986970  71.3329180  23.3466010
  30.3411440  75.7544850  14.1937500  30.2586110  76.6975610  14.3352490
  29.9894500  75.6119760  13.3149850  41.7032180  77.8129680  24.8555360
  40.9713300  78.3216490  25.2045460  41.3056520  76.9959660  24.5544140
  38.1409570  74.4883880  23.2607850  38.1445630  74.0473830  22.4112390
  39.0360690  74.8101210  23.3679670  33.9911950  74.3710370  22.2202060
  33.6512000  74.8485600  22.9769110  33.2289270  73.9175490  21.8603160
  38.2029720  75.4895960  16.2514610  38.3242540  75.4482440  17.2000430
  37.8178230  76.3520110  16.0961340  42.1658090  73.2663360  24.2678300
  42.1830830  73.7172010  25.1120150  41.9173670  72.3669000  24.4811740
  37.2151220  77.7997100  15.6497910  36.6468120  77.3515350  15.0233820
  37.9240220  78.1589880  15.1163060  45.5928840  70.6795540  30.1064680
  45.9174610  69.9485200  30.6322660  45.6285350  70.3609180  29.2045670
  38.4417540  78.5485660  25.0073260  38.8087670  78.0744230  25.7534600
  38.2522600  79.4227230  25.3481600  31.3058030  73.2929350  21.1366730
  31.0204950  72.9285020  21.9745350  31.2436890  72.5609810  20.5229870
  36.2316910  77.5894300  27.3257470  35.9273980  78.4686280  27.5507830
  37.1863370  77.6494090  27.3614910  40.9796620  72.1858610  17.8580100
  40.1661230  71.6871780  17.7825410  40.7858570  73.0256860  17.4416450
  40.9005480  80.8629710  29.6019710  40.8342790  79.9425380  29.3477300
  40.2710620  80.9605150  30.3164350  43.6945010  76.5578260  16.1542260
  44.5824630  76.8695490  15.9793600  43.6650100  75.6850510  15.7622840
  32.2880640  78.4297040  28.4728830  31.9295580  79.0950890  29.0602170
  31.9935200  77.5980590  28.8441450  35.4893760  78.8881280  31.3568380
  35.1893900  79.0338460  30.4596200  36.2605000  78.3286570  31.2641770
  45.9659280  77.8690100  15.6222120  45.8823000  78.3004320  14.7718560
  46.6853470  78.3288450  16.0548940  47.0433420  80.3257620  28.6992090
  46.3181610  80.9186400  28.5021480  47.5708880  80.3181160  27.9005460
  30.7988690  78.4288300  15.0963430  31.6683540  78.7113100  15.3799350
  30.3079010  79.2424170  14.9812240  37.9623500  79.8161510  19.2171710
  38.4186280  80.6266760  19.4431900  37.6111710  79.4984650  20.0490200
  33.8635280  70.1599160  19.6894230  33.7349910  70.1517060  20.6379150
  33.0397300  70.4982250  19.3385240  30.8629210  71.9190280  29.1500930
  30.1487730  72.1187200  29.7553540  31.2824250  71.1429850  29.5215730
  32.7835200  80.2461770  17.2245490  32.1763150  80.9860670  17.2340790
  33.2584550  80.3361130  16.3983690  42.3567990  74.4112590  26.9002380
  42.7248810  73.5907800  27.2281950  41.4966190  74.4714480  27.3158030
  45.7230020  73.3669530  17.7089940  45.0943180  73.4715200  16.9948170
  45.2281940  73.5866310  18.4983820  37.6914050  75.6455480  19.1247820
  36.9830200  76.1141820  19.5661430  37.9758530  74.9877490  19.7593010
  39.3169980  77.0652180  27.1240350  39.8155230  77.5398000  27.7892200
  39.4592930  76.1415700  27.3310380  41.7229480  72.3706140  20.5643610
  41.5997260  72.3892270  19.6153120  42.6714040  72.4185080  20.6842010
  35.8949070  73.9540560  16.4998530  36.7439600  74.3910710  16.4338720
  35.5280340  74.2660820  17.3270590  46.5236840  73.2820140  27.9668740
  46.0210440  74.0225540  28.3062550  47.3393500  73.6704140  27.6505530
  44.8158850  78.5253320  21.4130100  43.8748990  78.5403550  21.5877790
  45.1302920  77.7389280  21.8590400  34.7940490  80.2072920  14.9734060
  35.5603760  80.0954280  15.5359490  34.8715180  79.5110890  14.3210830
  33.4887250  77.6397990  15.6566950  33.5690840  76.6925500  15.7684350
  34.3807000  77.9704870  15.7627610  31.0158050  79.4612910  30.8923120
  31.5197070  78.8820190  31.4639350  30.2765470  79.7453140  31.4299490
  33.0481130  77.6042500  31.7873190  33.0886470  77.3056370  32.6958420
  33.9026630  78.0050110  31.6280710  36.8259520  80.2038050  16.9476700
  37.2475940  80.0377920  17.7908090  36.9510360  79.3938280  16.4531840
  34.9886940  76.1834600  29.7547680  34.4583400  75.6925550  29.1271020
  35.6575010  76.6118800  29.2205610  39.3387160  79.2275660  14.1953800
  39.8592820  78.5124680  13.8294950  39.9855560  79.8661530  14.4954310
  43.8865000  80.6504060  29.5188870  44.3006020  80.8049140  30.3679290
  42.9516000  80.7759280  29.6814650  44.3587170  77.9900220  31.5228020
  44.9407940  77.2352540  31.4348500  44.5348940  78.5207660  30.7459500
  35.4759240  73.1496970  29.8344970  35.3816110  72.5317720  29.1095840
  34.8956630  73.8763260  29.6074880  38.2420680  71.7070210  26.8672360
  37.7937980  71.7294470  26.0217910  37.6085880  71.3089230  27.4642660
  40.9844130  78.3340720  28.8722640  41.1040340  77.7381860  29.6117480
  41.8438130  78.3710410  28.4523940  43.3232030  78.8877910  27.4485150
  42.7967250  79.4120530  26.8450290  43.6663370  79.5205300  28.0794880
  35.7218420  76.2771280  13.8934860  35.5207480  75.4138640  14.2548200
  35.5510470  76.1904640  12.9556460  37.7512900  74.8762070  30.1298460
  38.3412590  74.5677920  30.8176280  36.9333140  74.4041820  30.2858360
  42.5706330  74.4927880  30.3631480  41.8821850  73.8309420  30.2981470
  43.2912350  74.0466150  30.8079940  43.2006730  71.0879510  16.4221740
  43.4809020  70.2447410  16.7781160  42.4272460  71.3202620  16.9360490
  34.5201220  73.3771900  13.8812740  34.8227120  73.3839330  12.9731890
  35.2595810  73.0269760  14.3780400  37.7386150  72.3206520  14.8668940
  37.3908150  71.6430510  14.2871390  37.9398920  71.8596030  15.6812330
  47.5787450  80.3256240  17.0325650  48.3406360  80.8952890  17.1385340
  47.5941820  79.7583440  17.8033960  31.0791790  78.8494170  21.2633310
  30.4240630  78.5805810  20.6193010  31.9169740  78.7398650  20.8135290
  44.0282230  73.6435460  15.4851800  44.4467110  73.4566440  14.6448460
  43.7218290  72.7914510  15.7954730  47.5271960  78.5559600  19.1827600
  47.1515560  77.7887530  18.7508890  46.7975080  78.9382300  19.6702530
  32.1167720  79.2346740  25.8036650  32.4840760  79.1474140  26.6832670
  31.5478540  78.4713290  25.7043510  46.9171580  77.7031120  28.8167120
  46.6857670  77.4743870  27.9165070  47.1776130  78.6230670  28.7712010
  31.6683720  76.1455830  29.7095070  30.7739770  76.1122590  30.0488780
  32.2081270  76.3442620  30.4746320  45.3559650  72.9287550  31.5946820
  46.2329830  72.9370950  31.9780820  45.3680490  72.1918390  30.9839170
  30.2929870  76.0593100  17.2058640  29.3893950  76.3223300  17.0310300
  30.7770490  76.3304270  16.4258600  46.8022920  76.7817090  22.4834840
  47.3260400  76.2879740  21.8525010  47.3882340  76.9167450  23.2282410
  46.9812640  76.8656960  26.0054390  46.0315350  76.8320500  26.1199380
  47.1625650  77.7757070  25.7704160  32.8357080  75.1158640  15.1153020
  33.5448780  74.6941860  14.6300300  32.1197020  75.1833870  14.4836370
  32.4831240  71.1697970  14.1555670  33.2059370  71.7106910  14.4736890
  32.7555760  70.8961390  13.2797210  46.2922890  76.0390440  18.4227250
  46.7882010  75.8061310  19.2076130  46.0938960  75.2002280  18.0064890
  32.1723430  70.4204160  24.0578290  32.8199620  69.8701540  23.6173450
  32.5925270  70.6747310  24.8794100  47.7210050  74.6751390  20.9564930
  47.6109330  74.5207430  21.8947200  48.4817640  74.1472330  20.7140340
  46.0675770  70.6145520  27.4147930  46.7047990  71.2279660  27.7807120
  46.2150660  70.6506180  26.4697160  48.6100320  72.5059310  14.1971070
  49.5349630  72.3740490  13.9889360  48.5876110  72.5852130  15.1507520
  48.6838810  73.2769970  16.8227780  47.8890310  73.2115090  17.3520690
  48.8882090  74.2120610  16.8113130  31.9255430  70.5759830  26.8003610
  31.5770250  71.0323650  27.5661790  31.5943130  69.6816960  26.8826040
  39.4380250  71.7671710  30.3223030  39.3769140  72.3593540  31.0718440
  40.3780630  71.6597670  30.1773290  42.0754810  71.4241770  29.9615320
  42.6895220  71.7421060  29.2996400  42.6204370  70.9390360  30.5811180
  32.5976070  70.1036030  30.0754380  33.1459060  69.9224080  29.3120490
  32.6631380  69.3130140  30.6110690  42.8162850  69.9873910  26.2884610
  41.9422690  70.3209020  26.0857540  42.7073600  69.5147090  27.1136480
  43.7234830  72.1944780  27.6726330  43.3948190  71.3796540  27.2928060
  44.6717130  72.1514590  27.5492020  40.5637670  70.9043750  25.2277520
  39.7809460  71.3789250  25.5074280  40.2700600  69.9998580  25.1190700
  45.1158740  71.6066850  23.2726610  45.5566830  71.5511950  22.4248210
  44.8466330  72.5224860  23.3436790  46.9797310  71.2382090  21.2835430
  46.9185710  70.2943310  21.1366450  47.7589340  71.3462180  21.8288890
  31.9078080  71.2091230  17.7491240  32.6657440  71.3220110  17.1755270
  31.4455250  72.0460430  17.7034670  38.4491890  73.3230500  20.7393550
  37.6366400  72.9487390  20.3989430  38.9533530  72.5675580  21.0414740
  42.9516870  69.9872950  21.9776620  43.5546240  70.5593160  22.4525140
  42.2109860  70.5512390  21.7550520  46.0951470  70.3894510  17.2516900
  46.2902100  71.2877960  17.5184330  45.3081340  70.1581590  17.7449850
  34.2803230  71.7355280  16.2893210  34.8095990  70.9485080  16.1601160
  34.9131550  72.4146470  16.5228740  36.4741070  71.4730420  19.3438600
  35.8443810  70.7717730  19.5108730  35.9346210  72.2334550  19.1271760
  36.5996630  70.7514400  31.7791090  36.3180900  71.2548000  31.0151910
  36.9816330  69.9536150  31.4133220  43.2012090  70.1667980  32.3571560
  43.0877540  70.4862590  33.2523080  44.0181830  70.5680490  32.0608840
  42.1070240  78.1860450   2.7206300  42.0264290  77.2715060   2.4498010
  41.6934660  78.6827520   2.0146010  40.2388280  79.9639470   4.6015570
  39.4630380  79.4839910   4.8914140  40.8901210  79.2845120   4.4271730
  34.2554110  80.2759280   5.4791330  33.4238990  80.0207990   5.8787840
  34.8635090  80.3470050   6.2149250  30.6279070  77.8366820   5.1473420
  31.1995180  77.0689020   5.1477060  30.6280610  78.1355580   4.2380030
  31.8703940  73.2451180   6.9342350  31.6906780  72.3476930   7.2145110
  31.4684020  73.7923050   7.6089300  40.7102440  75.4467040   4.8354660
  41.0867260  74.5738920   4.7228330  40.6121950  75.7825740   3.9445100
  44.4926560  72.9417480   1.7683000  45.3136180  72.4514050   1.8108480
  44.5260640  73.5315140   2.5214840  32.4890610  75.7411680   5.5424690
  33.1700720  76.0050050   6.1612090  32.1738660  74.9012550   5.8762700
  36.6815180  76.7879040   4.6297280  37.1893400  77.2860010   5.2702300
  37.2128420  76.0114240   4.4536640  48.7826110  74.9584230   8.3326630
  48.0778280  75.3465940   7.8141740  49.0484030  75.6534520   8.9347560
  34.9651280  71.4277600   8.8960700  34.9669720  71.9449990   8.0906600
  34.1355590  70.9507780   8.8730630  44.7288040  74.8817860   4.5410540
  44.0243610  75.1702750   5.1213650  45.0900200  75.6917970   4.1810100
  34.6466610  73.1387560   6.9031150  34.9883420  73.9829610   6.6085020
  33.7082420  73.2871300   7.0196490  47.7974960  74.3272650   4.9319750
  46.8499870  74.3611630   5.0635180  48.1224950  75.1411600   5.3169110
  38.3294500  70.6269830   3.2275740  38.6369480  70.0716720   2.5111240
  37.3995200  70.7614290   3.0448730  47.2257100  79.6454180   6.9382050
  46.3975730  79.7147270   6.4632180  47.8207580  80.2308490   6.4697880
  44.1899110  76.4323500   7.8836920  43.7770290  77.2577210   8.1376910
  43.4575060  75.8468540   7.6913280  36.3231900  79.2183400   2.7455590
  35.9188900  78.5060650   2.2501490  36.4095020  78.8736640   3.6343630
  35.0360520  75.9926610   6.5254630  35.5875110  76.1021950   5.7507880
  35.5504030  76.3664210   7.2409860  34.7103250  79.5145970  10.1359970
  34.5711020  80.3868770  10.5047370  33.8284610  79.1718780   9.9907910
  47.7155680  75.4840080  11.7659040  47.0999950  75.9919750  11.2374500
  47.3952100  74.5838410  11.7084980  35.4900190  71.4563450   3.6285910
  35.0468340  72.2372990   3.2970430  36.0485180  71.7793340   4.3356850
  39.7770000  74.3231970   9.2321230  39.3149370  74.5314990  10.0441170
  39.3748110  73.5091320   8.9291900  44.7774510  75.5440920  10.3617890
  43.9268100  75.2446670  10.6826960  44.6176300  75.7882930   9.4501710
  41.8724220  77.0442670  12.4616680  42.1977630  76.2106420  12.1218910
  42.6604550  77.5671190  12.6095010  37.5276090  72.0010780   5.4875510
  37.8248420  72.9073610   5.4067530  38.0761650  71.5129560   4.8735080
  37.7213620  77.4782600  12.0227430  37.6257220  76.5377330  11.8727830
  38.5645600  77.6997670  11.6275500  32.8524160  73.8896270  10.1761210
  32.4587550  74.7371480  10.3833990  32.1642560  73.2522640  10.3669850
  39.4269210  73.9731240  13.2457950  38.7367530  73.7803440  13.8804040
  40.1701510  74.2565880  13.7782250  30.1541210  71.8124730   4.2091290
  29.8654260  72.3827590   4.9216270  30.8986970  71.3329180   4.5722520
  41.7032180  77.8129680   6.0811870  40.9713300  78.3216490   6.4301970
  41.3056520  76.9959660   5.7800650  38.1409570  74.4883880   4.4864360
  38.1445630  74.0473830   3.6368900  39.0360690  74.8101210   4.5936180
  33.9911950  74.3710370   3.4458570  33.6512000  74.8485600   4.2025620
  33.2289270  73.9175490   3.0859670  42.1658090  73.2663360   5.4934810
  42.1830830  73.7172010   6.3376660  41.9173670  72.3669000   5.7068250
  45.5928840  70.6795540  11.3321190  45.9174610  69.9485200  11.8579170
  45.6285350  70.3609180  10.4302180  38.4417540  78.5485660   6.2329770
  38.8087670  78.0744230   6.9791110  38.2522600  79.4227230   6.5738110
  31.3058030  73.2929350   2.3623240  31.0204950  72.9285020   3.2001860
  31.2436890  72.5609810   1.7486380  36.2316910  77.5894300   8.5513980
  35.9273980  78.4686280   8.7764340  37.1863370  77.6494090   8.5871420
  40.9005480  80.8629710  10.8276220  40.8342790  79.9425380  10.5733810
  40.2710620  80.9605150  11.5420860  32.2880640  78.4297040   9.6985340
  31.9295580  79.0950890  10.2858680  31.9935200  77.5980590  10.0697960
  35.4893760  78.8881280  12.5824890  35.1893900  79.0338460  11.6852710
  36.2605000  78.3286570  12.4898280  47.0433420  80.3257620   9.9248600
  46.3181610  80.9186400   9.7277990  47.5708880  80.3181160   9.1261970
  30.8629210  71.9190280  10.3757440  30.1487730  72.1187200  10.9810050
  31.2824250  71.1429850  10.7472240  42.3567990  74.4112590   8.1258890
  42.7248810  73.5907800   8.4538460  41.4966190  74.4714480   8.5414540
  39.3169980  77.0652180   8.3496860  39.8155230  77.5398000   9.0148710
  39.4592930  76.1415700   8.5566890  46.5236840  73.2820140   9.1925250
  46.0210440  74.0225540   9.5319060  47.3393500  73.6704140   8.8762040
  44.8158850  78.5253320   2.6386610  43.8748990  78.5403550   2.8134300
  45.1302920  77.7389280   3.0846910  31.0158050  79.4612910  12.1179630
  31.5197070  78.8820190  12.6895860  30.2765470  79.7453140  12.6556000
  33.0481130  77.6042500  13.0129700  33.0886470  77.3056370  13.9214930
  33.9026630  78.0050110  12.8537220  34.9886940  76.1834600  10.9804190
  34.4583400  75.6925550  10.3527530  35.6575010  76.6118800  10.4462120
  43.8865000  80.6504060  10.7445380  44.3006020  80.8049140  11.5935800
  42.9516000  80.7759280  10.9071160  44.3587170  77.9900220  12.7484530
  44.9407940  77.2352540  12.6605010  44.5348940  78.5207660  11.9716010
  35.4759240  73.1496970  11.0601480  35.3816110  72.5317720  10.3352350
  34.8956630  73.8763260  10.8331390  38.2420680  71.7070210   8.0928870
  37.7937980  71.7294470   7.2474420  37.6085880  71.3089230   8.6899170
  40.9844130  78.3340720  10.0979150  41.1040340  77.7381860  10.8373990
  41.8438130  78.3710410   9.6780450  43.3232030  78.8877910   8.6741660
  42.7967250  79.4120530   8.0706800  43.6663370  79.5205300   9.3051390
  37.7512900  74.8762070  11.3554970  38.3412590  74.5677920  12.0432790
  36.9333140  74.4041820  11.5114870  42.5706330  74.4927880  11.5887990
  41.8821850  73.8309420  11.5237980  43.2912350  74.0466150  12.0336450
  31.0791790  78.8494170   2.4889820  30.4240630  78.5805810   1.8449520
  31.9169740  78.7398650   2.0391800  32.1167720  79.2346740   7.0293160
  32.4840760  79.1474140   7.9089180  31.5478540  78.4713290   6.9300020
  46.9171580  77.7031120  10.0423630  46.6857670  77.4743870   9.1421580
  47.1776130  78.6230670   9.9968520  31.6683720  76.1455830  10.9351580
  30.7739770  76.1122590  11.2745290  32.2081270  76.3442620  11.7002830
  45.3559650  72.9287550  12.8203330  46.2329830  72.9370950  13.2037330
  45.3680490  72.1918390  12.2095680  46.8022920  76.7817090   3.7091350
  47.3260400  76.2879740   3.0781520  47.3882340  76.9167450   4.4538920
  46.9812640  76.8656960   7.2310900  46.0315350  76.8320500   7.3455890
  47.1625650  77.7757070   6.9960670  32.1723430  70.4204160   5.2834800
  32.8199620  69.8701540   4.8429960  32.5925270  70.6747310   6.1050610
  47.7210050  74.6751390   2.1821440  47.6109330  74.5207430   3.1203710
  48.4817640  74.1472330   1.9396850  46.0675770  70.6145520   8.6404440
  46.7047990  71.2279660   9.0063630  46.2150660  70.6506180   7.6953670
  31.9255430  70.5759830   8.0260120  31.5770250  71.0323650   8.7918300
  31.5943130  69.6816960   8.1082550  39.4380250  71.7671710  11.5479540
  39.3769140  72.3593540  12.2974950  40.3780630  71.6597670  11.4029800
  42.0754810  71.4241770  11.1871830  42.6895220  71.7421060  10.5252910
  42.6204370  70.9390360  11.8067690  32.5976070  70.1036030  11.3010890
  33.1459060  69.9224080  10.5377000  32.6631380  69.3130140  11.8367200
  42.8162850  69.9873910   7.5141120  41.9422690  70.3209020   7.3114050
  42.7073600  69.5147090   8.3392990  43.7234830  72.1944780   8.8982840
  43.3948190  71.3796540   8.5184570  44.6717130  72.1514590   8.7748530
  40.5637670  70.9043750   6.4534030  39.7809460  71.3789250   6.7330790
  40.2700600  69.9998580   6.3447210  45.1158740  71.6066850   4.4983120
  45.5566830  71.5511950   3.6504720  44.8466330  72.5224860   4.5693300
  46.9797310  71.2382090   2.5091940  46.9185710  70.2943310   2.3622960
  47.7589340  71.3462180   3.0545400  42.9516870  69.9872950   3.2033130
  43.5546240  70.5593160   3.6781650  42.2109860  70.5512390   2.9807030
  36.5996630  70.7514400  13.0047600  36.3180900  71.2548000  12.2408420
  36.9816330  69.9536150  12.6389730  43.2012090  70.1667980  13.5828070
  43.0877540  70.4862590  14.4779590  44.0181830  70.5680490  13.2865350
  42.1070240  59.4116960  77.8180260  42.0264290  58.4971570  77.5471970
  41.6934660  59.9084030  77.1119970  40.2388280  61.1895980  79.6989530
  39.4630380  60.7096420  79.9888100  40.8901210  60.5101630  79.5245690
  34.2554110  61.5015790  80.5765290  33.4238990  61.2464500  80.9761800
  34.8635090  61.5726560  81.3123210  44.2595710  65.5956170  78.4788660
  43.7977240  64.8243410  78.8075830  45.0721260  65.6222240  78.9841110
  34.2355370  65.5355880  80.7723310  34.5383410  64.6453620  80.5933530
  34.9798960  66.0926100  80.5445560  32.6646060  56.4617680  74.3607680
  31.7762760  56.8033650  74.2587560  32.9487250  56.2618000  73.4688510
  30.6279070  59.0623330  80.2447380  31.1995180  58.2945530  80.2451020
  30.6280610  59.3612090  79.3353990  40.4859020  67.8814180  78.0992650
  39.8670460  68.3371680  77.5287090  41.3410800  68.0365640  77.6982350
  39.6797270  63.8653170  79.7059690  39.6105550  62.9243110  79.5448820
  40.4417130  63.9554580  80.2782260  40.7102440  56.6723550  79.9328620
  41.0867260  55.7995430  79.8202290  40.6121950  57.0082250  79.0419060
  34.8407450  55.0449180  75.3946060  34.9474200  55.9452910  75.7014820
  33.9299810  54.9967150  75.1040710  44.4926560  54.1673990  76.8656960
  45.3136180  53.6770560  76.9082440  44.5260640  54.7571650  77.6188800
  32.4890610  56.9668190  80.6398650  33.1700720  57.2306560  81.2586050
  32.1738660  56.1269060  80.9736660  36.6815180  58.0135550  79.7271240
  37.1893400  58.5116520  80.3676260  37.2128420  57.2370750  79.5510600
  41.3522370  62.7653420  75.4924560  40.7339640  63.2302870  74.9287280
  41.8645620  63.4580900  75.9094070  44.7288040  56.1074370  79.6384500
  44.0243610  56.3959260  80.2187610  45.0900200  56.9174480  79.2784060
  30.7205570  63.4509950  72.8664190  30.3433550  63.9397050  72.1349090
  30.9778640  64.1235230  73.4970720  46.3450820  65.7249500  81.9011980
  45.6614340  66.3948610  81.8928650  46.8845110  65.9230150  81.1356840
  47.7974960  55.5529160  80.0293710  46.8499870  55.5868140  80.1609140
  48.1224950  56.3668110  80.4143070  38.3294500  51.8526340  78.3249700
  38.6369480  51.2973230  77.6085200  37.3995200  51.9870800  78.1422690
  43.8809560  67.5693630  80.6157160  43.8936720  67.1655920  79.7479420
  43.3284780  68.3440920  80.5118590  45.1754980  64.2909850  75.7047330
  45.0651310  63.3484180  75.8296750  45.1723230  64.6525490  76.5910090
  40.7175260  59.9175170  75.0609820  39.7904540  59.8512550  75.2898290
  40.8700080  60.8555300  74.9465060  40.7044340  56.1892170  72.0576980
  39.7648010  56.3506130  72.1429440  41.0227600  56.9077850  71.5112970
  47.2257100  60.8710690  82.0356010  46.3975730  60.9403780  81.5606140
  47.8207580  61.4565000  81.5671840  44.7472550  61.4795470  75.5645070
  44.1284970  61.1415020  74.9171370  44.7297000  60.8355230  76.2724260
  36.3231900  60.4439910  77.8429550  35.9188900  59.7317160  77.3475450
  36.4095020  60.0993150  78.7317590  36.7913600  64.1307470  80.0068760
  36.4941890  63.5252940  79.3276540  37.7413420  64.1684780  79.8958120
  42.9237250  60.7182280  72.5717820  43.3630530  59.8804710  72.4255640
  43.6365670  61.3511680  72.6581960  41.0332630  65.6578350  76.5399060
  41.4728540  66.4002680  76.1254450  40.9719520  65.9004920  77.4638020
  46.5054390  51.9725090  70.8858860  46.1927050  52.0651920  71.7857930
  47.2666860  52.5506120  70.8356290  33.0236530  59.3384890  75.3436200
  32.9034130  60.0646980  74.7317470  32.7137420  58.5687800  74.8664110
  30.6621900  62.5100030  81.1504840  30.7402320  62.6448800  80.2060560
  31.2763580  61.8015920  81.3432960  31.9069530  64.2100220  77.5611020
  31.4997610  64.3514810  76.7064620  32.7982540  63.9260380  77.3582230
  43.7002810  68.6447470  73.8962070  43.5403950  68.3550410  74.7943900
  43.5349520  67.8687600  73.3607300  36.1791190  68.4246000  75.6733690
  36.0033670  67.5081540  75.4601490  35.3246930  68.7833290  75.9131490
  43.4028940  66.1535030  72.4560070  42.7094100  66.1512320  71.7962350
  44.1451800  65.7294350  72.0254240  42.9678870  67.7797740  76.5308560
  43.4235820  66.9987120  76.8447180  43.3071390  68.4904560  77.0749740
  35.4900190  52.6819960  78.7259870  35.0468340  53.4629500  78.3944390
  36.0485180  53.0049850  79.4330810  38.6059010  52.3030660  73.6065700
  37.9813190  52.2990530  74.3319010  38.5189130  51.4361620  73.2101670
  37.5276090  53.2267290  80.5849470  37.8248420  54.1330120  80.5041490
  38.0761650  52.7386070  79.9709040  35.2814410  57.8053530  76.4541120
  35.0555330  57.5890700  77.3587740  34.5006940  58.2381990  76.1087090
  42.5112170  57.8116900  75.0531770  41.9121060  58.5352700  74.8695390
  43.0591780  57.7493680  74.2708220  41.1177040  56.4480440  77.0835050
  41.5106610  56.7652640  76.2703740  41.4793890  55.5692320  77.1979570
  30.1541210  53.0381240  79.3065250  29.8654260  53.6084100  80.0190230
  30.8986970  52.5585690  79.6696480  30.3411440  56.9801360  70.5167970
  30.2586110  57.9232120  70.6582960  29.9894500  56.8376270  69.6380320
  41.7032180  59.0386190  81.1785830  40.9713300  59.5473000  81.5275930
  41.3056520  58.2216170  80.8774610  38.1409570  55.7140390  79.5838320
  38.1445630  55.2730340  78.7342860  39.0360690  56.0357720  79.6910140
  33.9911950  55.5966880  78.5432530  33.6512000  56.0742110  79.2999580
  33.2289270  55.1432000  78.1833630  38.2029720  56.7152470  72.5745080
  38.3242540  56.6738950  73.5230900  37.8178230  57.5776620  72.4191810
  42.1658090  54.4919870  80.5908770  42.1830830  54.9428520  81.4350620
  41.9173670  53.5925510  80.8042210  37.2151220  59.0253610  71.9728380
  36.6468120  58.5771860  71.3464290  37.9240220  59.3846390  71.4393530
  31.3058030  54.5185860  77.4597200  31.0204950  54.1541530  78.2975820
  31.2436890  53.7866320  76.8460340  34.7598700  63.0211800  74.2454790
  33.9860960  62.4809420  74.0853510  35.4893330  62.5018410  73.9072550
  45.5186680  62.0177160  80.0381180  46.2385800  62.5132450  79.6477290
  45.3168500  61.3395050  79.3935050  40.9796620  53.4115120  74.1810570
  40.1661230  52.9128290  74.1055880  40.7858570  54.2513370  73.7646920
  43.6945010  57.7834770  72.4772730  44.5824630  58.0952000  72.3024070
  43.6650100  56.9107020  72.0853310  34.8036100  62.6892180  77.8833600
  35.3214770  61.8860440  77.8290490  34.3520120  62.6271320  78.7250430
  39.6905600  63.9558460  73.1560900  40.0321300  64.7000690  72.6604220
  38.8618310  64.2689580  73.5185730  45.9659280  59.0946610  71.9452590
  45.8823000  59.5260830  71.0949030  46.6853470  59.5544960  72.3779410
  46.9946530  65.9488870  74.6734720  46.3522690  65.2944490  74.9478440
  46.6077190  66.3543960  73.8975390  42.5733010  63.2774300  78.5206410
  42.9256830  62.6802430  77.8607780  41.6895340  62.9518530  78.6914660
  38.6596290  64.0371990  75.9276820  39.3467420  64.5841200  76.3084410
  37.8728710  64.5812720  75.9626430  30.7988690  59.6544810  71.4193900
  31.6683540  59.9369610  71.7029820  30.3079010  60.4680680  71.3042710
  37.9623500  61.0418020  75.5402180  38.4186280  61.8523270  75.7662370
  37.6111710  60.7241160  76.3720670  33.8635280  51.3855670  76.0124700
  33.7349910  51.3773570  76.9609620  33.0397300  51.7238760  75.6615710
  41.5388190  64.5556710  81.4871930  42.1810420  63.8549870  81.6004100
  42.0637540  65.3355150  81.3068820  45.3843910  64.8405330  71.2111070
  45.1581490  64.1235770  71.8035710  44.9940110  64.5917770  70.3732820
  31.1659940  68.8672190  71.9855530  31.5257580  69.4661530  71.3312800
  31.0252280  69.4132080  72.7590560  44.9660160  62.7577270  72.8725230
  44.6781860  63.2189960  73.6603110  45.7612330  62.2975040  73.1409450
  37.1828560  66.2503390  72.8029200  37.1738660  66.9833080  72.1873710
  36.2626920  66.0034970  72.8956160  32.7835200  61.4718280  73.5475960
  32.1763150  62.2117180  73.5571260  33.2584550  61.5617640  72.7214160
  45.7230020  54.5926040  74.0320410  45.0943180  54.6971710  73.3178640
  45.2281940  54.8122820  74.8214290  40.1688160  66.3131630  71.4654390
  40.2700140  66.1095620  70.5356370  39.2689900  66.0589910  71.6702170
  37.6914050  56.8711990  75.4478290  36.9830200  57.3398330  75.8891900
  37.9758530  56.2134000  76.0823480  41.7229480  53.5962650  76.8874080
  41.5997260  53.6148780  75.9383590  42.6714040  53.6441590  77.0072480
  38.8106270  68.8317950  76.1602060  39.0647770  68.7939340  75.2381430
  37.8618750  68.7051280  76.1530310  35.8949070  55.1797070  72.8229000
  36.7439600  55.6167220  72.7569190  35.5280340  55.4917330  73.6501060
  44.8158850  59.7509830  77.7360570  43.8748990  59.7660060  77.9108260
  45.1302920  58.9645790  78.1820870  34.7940490  61.4329430  71.2964530
  35.5603760  61.3210790  71.8589960  34.8715180  60.7367400  70.6441300
  33.4887250  58.8654500  71.9797420  33.5690840  57.9182010  72.0914820
  34.3807000  59.1961380  72.0858080  46.8184430  66.9218680  79.4114830
  46.9431850  67.7449850  79.8838640  47.6849990  66.7109410  79.0638980
  34.2901960  69.0149890  79.0831960  35.0264440  68.4665350  79.3540530
  34.6742880  69.8805900  78.9437950  31.1747440  65.0823460  74.9573470
  30.2487220  65.3244600  74.9478880  31.6403870  65.9097720  74.8358220
  37.4004270  68.1880200  70.9057530  38.1932880  68.4769030  70.4539320
  36.8808620  67.7572370  70.2270010  46.4534440  67.4150330  72.3294270
  46.1675950  67.0015470  71.5148450  46.2553990  68.3438040  72.2094790
  37.9181670  63.4083610  70.7699880  37.8132310  62.7935960  71.4961260
  37.7505890  62.8849500  69.9862890  41.1584400  62.4703640  71.3741870
  40.6094500  62.9172940  72.0184610  41.7803660  61.9652890  71.8979540
  36.8259520  61.4294560  73.2707170  37.2475940  61.2634430  74.1138560
  36.9510360  60.6194790  72.7762310  39.3387160  60.4532170  70.5184270
  39.8592820  59.7381190  70.1525420  39.9855560  61.0918040  70.8184780
  35.7218420  57.5027790  70.2165330  35.5207480  56.6395150  70.5778670
  35.5510470  57.4161150  69.2786930  43.2006730  52.3136020  72.7452210
  43.4809020  51.4703920  73.1011630  42.4272460  52.5459130  73.2590960
  34.5201220  54.6028410  70.2043210  34.8227120  54.6095840  69.2962360
  35.2595810  54.2526270  70.7010870  37.7386150  53.5463030  71.1899410
  37.3908150  52.8687020  70.6101860  37.9398920  53.0852540  72.0042800
  39.9035190  68.5343780  72.8086010  40.7985980  68.8728750  72.8304770
  39.9352820  67.8123190  72.1810290  33.5431350  63.9070830  71.0373010
  33.9806220  64.4500500  71.6930590  34.0279080  63.0817780  71.0469350
  30.7577150  66.6959860  78.4893270  31.0880160  65.8280920  78.2571910
  31.1868150  66.9018380  79.3198230  35.3539070  65.0268870  76.1495240
  35.0534610  64.9033840  77.0499150  35.2476560  64.1677460  75.7410970
  48.1230990  64.8065270  70.8521920  47.2923950  64.8741920  71.3229150
  48.3002820  65.6969390  70.5488780  47.5787450  61.5512750  73.3556120
  48.3406360  62.1209400  73.4615810  47.5941820  60.9839950  74.1264430
  31.0791790  60.0750680  77.5863780  30.4240630  59.8062320  76.9423480
  31.9169740  59.9655160  77.1365760  48.5847420  62.4062850  78.1998050
  48.9556250  61.6230170  77.7934020  49.2249350  63.0951950  78.0215350
  47.6306620  61.8447120  70.5128640  47.9055460  62.7526000  70.3847860
  47.4417360  61.7809650  71.4490630  44.0282230  54.8691970  71.8082270
  44.4467110  54.6822950  70.9678930  43.7218290  54.0171020  72.1185200
  47.5271960  59.7816110  75.5058070  47.1515560  59.0144040  75.0739360
  46.7975080  60.1638810  75.9933000  30.2929870  57.2849610  73.5289110
  29.3893950  57.5479810  73.3540770  30.7770490  57.5560780  72.7489070
  46.8022920  58.0073600  78.8065310  47.3260400  57.5136250  78.1755480
  47.3882340  58.1423960  79.5512880  32.8357080  56.3415150  71.4383490
  33.5448780  55.9198370  70.9530770  32.1197020  56.4090380  70.8066840
  32.4831240  52.3954480  70.4786140  33.2059370  52.9363420  70.7967360
  32.7555760  52.1217900  69.6027680  46.2922890  57.2646950  74.7457720
  46.7882010  57.0317820  75.5306600  46.0938960  56.4258790  74.3295360
  32.1723430  51.6460670  80.3808760  32.8199620  51.0958050  79.9403920
  32.5925270  51.9003820  81.2024570  47.7210050  55.9007900  77.2795400
  47.6109330  55.7463940  78.2177670  48.4817640  55.3728840  77.0370810
  48.6100320  53.7315820  70.5201540  49.5349630  53.5997000  70.3119830
  48.5876110  53.8108640  71.4737990  48.6838810  54.5026480  73.1458250
  47.8890310  54.4371600  73.6751160  48.8882090  55.4377120  73.1343600
  45.6257230  68.5418030  77.1396640  46.2216300  68.2202600  76.4631060
  45.8835380  68.0689850  77.9309910  46.1769440  69.1913330  80.9694370
  45.7172410  69.9429140  80.5952390  45.5481900  68.4719800  80.9109170
  36.6065160  67.5001570  80.1442500  37.1230180  66.8888930  79.6190760
  37.2562540  68.0030350  80.6353510  39.3460660  68.3910060  80.9711480
  39.6338470  68.1364360  80.0944490  39.8583880  67.8387420  81.5617050
  40.5637670  52.1300260  81.5507990  39.7809460  52.6045760  81.8304750
  40.2700600  51.2255090  81.4421170  45.1158740  52.8323360  79.5957080
  45.5566830  52.7768460  78.7478680  44.8466330  53.7481370  79.6667260
  46.9797310  52.4638600  77.6065900  46.9185710  51.5199820  77.4596920
  47.7589340  52.5718690  78.1519360  31.2850060  68.6030960  76.5689850
  31.1172100  67.9701640  77.2671740  30.4184570  68.8090360  76.2184040
  31.9078080  52.4347740  74.0721710  32.6657440  52.5476620  73.4985740
  31.4455250  53.2716940  74.0265140  38.4491890  54.5487010  77.0624020
  37.6366400  54.1743900  76.7219900  38.9533530  53.7932090  77.3645210
  42.9516870  51.2129460  78.3007090  43.5546240  51.7849670  78.7755610
  42.2109860  51.7768900  78.0780990  46.0951470  51.6151020  73.5747370
  46.2902100  52.5134470  73.8414800  45.3081340  51.3838100  74.0680320
  32.8912760  67.2964190  74.0139990  32.3660380  67.6772220  73.3101950
  32.8157340  67.9214960  74.7349700  34.2803230  52.9611790  72.6123680
  34.8095990  52.1741590  72.4831630  34.9131550  53.6402980  72.8459210
  36.4741070  52.6986930  75.6669070  35.8443810  51.9974240  75.8339200
  35.9346210  53.4591060  75.4502230  47.6478080  68.8551730  75.3353930
  47.8230270  68.1689470  74.6914850  46.9499650  69.3798780  74.9430600
  35.4905730  69.2446570  72.8889240  36.2224550  68.9605850  72.3413130
  35.7499400  69.0059850  73.7788620  34.6520520  65.3611300  72.8935570
  34.0229400  65.8296400  73.4421400  34.7668350  64.5160520  73.3281760
  34.2554110  61.5015790  61.8021800  33.4238990  61.2464500  62.2018310
  34.8635090  61.5726560  62.5379720  44.2595710  65.5956170  59.7045170
  43.7977240  64.8243410  60.0332340  45.0721260  65.6222240  60.2097620
  34.2355370  65.5355880  61.9979820  34.5383410  64.6453620  61.8190040
  34.9798960  66.0926100  61.7702070  32.6646060  56.4617680  55.5864190
  31.7762760  56.8033650  55.4844070  32.9487250  56.2618000  54.6945020
  30.6279070  59.0623330  61.4703890  31.1995180  58.2945530  61.4707530
  30.6280610  59.3612090  60.5610500  40.4859020  67.8814180  59.3249160
  39.8670460  68.3371680  58.7543600  41.3410800  68.0365640  58.9238860
  34.8407450  55.0449180  56.6202570  34.9474200  55.9452910  56.9271330
  33.9299810  54.9967150  56.3297220  32.4890610  56.9668190  61.8655160
  33.1700720  57.2306560  62.4842560  32.1738660  56.1269060  62.1993170
  36.2154130  62.2929290  63.3964670  35.8823510  62.9198210  64.0385740
  36.3920810  62.8191170  62.6166340  35.4273230  64.2610090  65.2113850
  36.0447230  64.9361170  64.9298300  34.5666350  64.6698070  65.1201350
  30.7205570  63.4509950  54.0920700  30.3433550  63.9397050  53.3605600
  30.9778640  64.1235230  54.7227230  46.3450820  65.7249500  63.1268490
  45.6614340  66.3948610  63.1185160  46.8845110  65.9230150  62.3613350
  43.8809560  67.5693630  61.8413670  43.8936720  67.1655920  60.9735930
  43.3284780  68.3440920  61.7375100  43.2795000  62.4723470  63.1696280
  43.6963790  62.2583580  62.3349740  44.0034820  62.7296260  63.7404900
  36.7913600  64.1307470  61.2325270  36.4941890  63.5252940  60.5533050
  37.7413420  64.1684780  61.1214630  35.0360520  57.2183120  62.8485100
  35.5875110  57.3278460  62.0738350  35.5504030  57.5920720  63.5640330
  44.8799210  67.7039340  64.8948370  44.4029770  68.5111530  64.7020980
  44.1961000  67.0517670  65.0474580  35.8832030  63.8689160  67.8833070
  34.9860560  64.0929130  68.1306470  35.9084900  63.9924100  66.9344470
  34.7103250  60.7402480  66.4590440  34.5711020  61.6125280  66.8277840
  33.8284610  60.3975290  66.3138380  41.0332630  65.6578350  57.7655570
  41.4728540  66.4002680  57.3510960  40.9719520  65.9004920  58.6894530
  36.5083600  66.6824180  68.6675590  36.4799030  67.0867130  67.8004020
  36.3448570  65.7534540  68.5047190  33.0236530  59.3384890  56.5692710
  32.9034130  60.0646980  55.9573980  32.7137420  58.5687800  56.0920620
  48.4598420  67.4651280  69.9639760  48.9358140  67.9434170  70.6428840
  49.0805580  67.3968770  69.2385260  30.6621900  62.5100030  62.3761350
  30.7402320  62.6448800  61.4317070  31.2763580  61.8015920  62.5689470
  31.9069530  64.2100220  58.7867530  31.4997610  64.3514810  57.9321130
  32.7982540  63.9260380  58.5838740  47.8631670  64.6564130  67.1239770
  47.9894730  64.4176010  66.2056950  47.9053050  63.8248670  67.5961850
  41.7248410  68.3592130  65.6934580  42.2393080  68.2700140  66.4957010
  40.8817490  68.7051830  65.9862490  43.7002810  68.6447470  55.1218580
  43.5403950  68.3550410  56.0200410  43.5349520  67.8687600  54.5863810
  36.1791190  68.4246000  56.8990200  36.0033670  67.5081540  56.6858000
  35.3246930  68.7833290  57.1388000  43.4028940  66.1535030  53.6816580
  42.7094100  66.1512320  53.0218860  44.1451800  65.7294350  53.2510750
  42.9678870  67.7797740  57.7565070  43.4235820  66.9987120  58.0703690
  43.3071390  68.4904560  58.3006250  47.7155680  56.7096590  68.0889510
  47.0999950  57.2176260  67.5604970  47.3952100  55.8094920  68.0315450
  30.7181420  63.5514200  64.9155810  30.8812460  63.0819560  64.0975180
  31.1833870  63.0437760  65.5804650  44.7774510  56.7697430  66.6848360
  43.9268100  56.4703180  67.0057430  44.6176300  57.0139440  65.7732180
  41.8724220  58.2699180  68.7847150  42.1977630  57.4362930  68.4449380
  42.6604550  58.7927700  68.9325480  35.2814410  57.8053530  57.6797630
  35.0555330  57.5890700  58.5844250  34.5006940  58.2381990  57.3343600
  37.7213620  58.7039110  68.3457900  37.6257220  57.7633840  68.1958300
  38.5645600  58.9254180  67.9505970  32.8524160  55.1152780  66.4991680
  32.4587550  55.9627990  66.7064460  32.1642560  54.4779150  66.6900320
  39.4269210  55.1987750  69.5688420  38.7367530  55.0059950  70.2034510
  40.1701510  55.4822390  70.1012720  30.1541210  53.0381240  60.5321760
  29.8654260  53.6084100  61.2446740  30.8986970  52.5585690  60.8952990
  30.3411440  56.9801360  51.7424480  30.2586110  57.9232120  51.8839470
  29.9894500  56.8376270  50.8636830  37.2151220  59.0253610  53.1984890
  36.6468120  58.5771860  52.5720800  37.9240220  59.3846390  52.6650040
  45.5928840  51.9052050  67.6551660  45.9174610  51.1741710  68.1809640
  45.6285350  51.5865690  66.7532650  32.2920400  62.9265630  67.0751620
  31.9075190  62.2859300  67.6734580  32.6032590  63.6301750  67.6446350
  31.3058030  54.5185860  58.6853710  31.0204950  54.1541530  59.5232330
  31.2436890  53.7866320  58.0716850  36.2316910  58.8150810  64.8744450
  35.9273980  59.6942790  65.0994810  37.1863370  58.8750600  64.9101890
  34.7598700  63.0211800  55.4711300  33.9860960  62.4809420  55.3110020
  35.4893330  62.5018410  55.1329060  40.9005480  62.0886220  67.1506690
  40.8342790  61.1681890  66.8964280  40.2710620  62.1861660  67.8651330
  34.8036100  62.6892180  59.1090110  35.3214770  61.8860440  59.0547000
  34.3520120  62.6271320  59.9506940  39.6905600  63.9558460  54.3817410
  40.0321300  64.7000690  53.8860730  38.8618310  64.2689580  54.7442240
  32.2880640  59.6553550  66.0215810  31.9295580  60.3207400  66.6089150
  31.9935200  58.8237100  66.3928430  35.4893760  60.1137790  68.9055360
  35.1893900  60.2594970  68.0083180  36.2605000  59.5543080  68.8128750
  40.8322210  64.9106790  66.9010490  40.8466750  63.9787750  66.6829400
  40.1247310  64.9966550  67.5400260  47.0433420  61.5514130  66.2479070
  46.3181610  62.1442910  66.0508460  47.5708880  61.5437670  65.4492440
  46.9946530  65.9488870  55.8991230  46.3522690  65.2944490  56.1734950
  46.6077190  66.3543960  55.1231900  38.6596290  64.0371990  57.1533330
  39.3467420  64.5841200  57.5340920  37.8728710  64.5812720  57.1882940
  30.7988690  59.6544810  52.6450410  31.6683540  59.9369610  52.9286330
  30.3079010  60.4680680  52.5299220  40.2656110  66.5524360  63.9950990
  40.9098330  66.7583740  64.6724410  40.6285550  65.7912760  63.5421840
  41.5388190  64.5556710  62.7128440  42.1810420  63.8549870  62.8260610
  42.0637540  65.3355150  62.5325330  45.3843910  64.8405330  52.4367580
  45.1581490  64.1235770  53.0292220  44.9940110  64.5917770  51.5989330
  43.3125810  65.3551610  65.9164500  43.6482050  65.9418300  66.5942420
  42.3926150  65.2244320  66.1462290  31.1659940  68.8672190  53.2112040
  31.5257580  69.4661530  52.5569310  31.0252280  69.4132080  53.9847070
  30.8629210  53.1446790  66.6987910  30.1487730  53.3443710  67.3040520
  31.2824250  52.3686360  67.0702710  44.9660160  62.7577270  54.0981740
  44.6781860  63.2189960  54.8859620  45.7612330  62.2975040  54.3665960
  31.1501800  67.1327050  67.6854440  31.2592920  66.1921790  67.5449830
  30.4982360  67.3981800  67.0368170  39.1414390  65.4042940  69.0852560
  38.8211260  64.6852180  69.6298250  38.4672750  66.0798010  69.1588620
  37.1828560  66.2503390  54.0285710  37.1738660  66.9833080  53.4130220
  36.2626920  66.0034970  54.1212670  32.7835200  61.4718280  54.7732470
  32.1763150  62.2117180  54.7827770  33.2584550  61.5617640  53.9470670
  40.1688160  66.3131630  52.6910900  40.2700140  66.1095620  51.7612880
  39.2689900  66.0589910  52.8958680  39.3169980  58.2908690  64.6727330
  39.8155230  58.7654510  65.3379180  39.4592930  57.3672210  64.8797360
  38.8106270  68.8317950  57.3858570  39.0647770  68.7939340  56.4637940
  37.8618750  68.7051280  57.3786820  46.5236840  54.5076650  65.5155720
  46.0210440  55.2482050  65.8549530  47.3393500  54.8960650  65.1992510
  34.7940490  61.4329430  52.5221040  35.5603760  61.3210790  53.0846470
  34.8715180  60.7367400  51.8697810  33.4887250  58.8654500  53.2053930
  33.5690840  57.9182010  53.3171330  34.3807000  59.1961380  53.3114590
  46.8184430  66.9218680  60.6371340  46.9431850  67.7449850  61.1095150
  47.6849990  66.7109410  60.2895490  34.2901960  69.0149890  60.3088470
  35.0264440  68.4665350  60.5797040  34.6742880  69.8805900  60.1694460
  31.1747440  65.0823460  56.1829980  30.2487220  65.3244600  56.1735390
  31.6403870  65.9097720  56.0614730  33.2960240  68.1995960  69.4974050
  34.0972970  68.5208010  69.9109450  32.7812060  67.8391540  70.2193960
  37.4004270  68.1880200  52.1314040  38.1932880  68.4769030  51.6795830
  36.8808620  67.7572370  51.4526520  42.1324870  64.3075830  69.4449460
  41.5263030  64.3307430  68.7045210  41.8278980  63.5758870  69.9816710
  43.5625240  68.0356120  68.0558870  44.5146990  67.9514140  68.0059110
  43.4153460  68.6997830  68.7292660  46.4534440  67.4150330  53.5550780
  46.1675950  67.0015470  52.7404960  46.2553990  68.3438040  53.4351300
  31.0158050  60.6869420  68.4410100  31.5197070  60.1076700  69.0126330
  30.2765470  60.9709650  68.9786470  37.9181670  63.4083610  51.9956390
  37.8132310  62.7935960  52.7217770  37.7505890  62.8849500  51.2119400
  38.0695990  62.0940410  67.9745620  37.3041660  62.6625410  67.8900290
  38.2511950  61.8016620  67.0813850  41.1584400  62.4703640  52.5998380
  40.6094500  62.9172940  53.2441120  41.7803660  61.9652890  53.1236050
  45.2119340  63.8245740  68.5320640  45.9528810  64.1621500  68.0288100
  44.4492020  63.9937800  67.9790410  33.0481130  58.8299010  69.3360170
  33.0886470  58.5312880  70.2445400  33.9026630  59.2306620  69.1767690
  36.8259520  61.4294560  54.4963680  37.2475940  61.2634430  55.3395070
  36.9510360  60.6194790  54.0018820  34.9886940  57.4091110  67.3034660
  34.4583400  56.9182060  66.6758000  35.6575010  57.8375310  66.7692590
  39.3387160  60.4532170  51.7440780  39.8592820  59.7381190  51.3781930
  39.9855560  61.0918040  52.0441290  43.8865000  61.8760570  67.0675850
  44.3006020  62.0305650  67.9166270  42.9516000  62.0015790  67.2301630
  44.3587170  59.2156730  69.0715000  44.9407940  58.4609050  68.9835480
  44.5348940  59.7464170  68.2946480  35.4759240  54.3753480  67.3831950
  35.3816110  53.7574230  66.6582820  34.8956630  55.1019770  67.1561860
  38.6480230  61.8281050  65.0371780  39.0668340  62.6713780  64.8648020
  37.7288860  61.9653090  64.8078560  40.9844130  59.5597230  66.4209620
  41.1040340  58.9638370  67.1604460  41.8438130  59.5966920  66.0010920
  43.3232030  60.1134420  64.9972130  42.7967250  60.6377040  64.3937270
  43.6663370  60.7461810  65.6281860  36.4987650  68.1334060  66.1529510
  35.9608740  68.8580120  65.8338210  36.7521610  67.6564400  65.3626850
  37.7512900  56.1018580  67.6785440  38.3412590  55.7934430  68.3663260
  36.9333140  55.6298330  67.8345340  42.5706330  55.7184390  67.9118460
  41.8821850  55.0565930  67.8468450  43.2912350  55.2722660  68.3566920
  39.3549860  69.3685270  66.4116160  39.2808560  70.2720410  66.7188530
  38.4528700  69.0497170  66.3838230  39.9035190  68.5343780  54.0342520
  40.7985980  68.8728750  54.0561280  39.9352820  67.8123190  53.4066800
  33.5431350  63.9070830  52.2629520  33.9806220  64.4500500  52.9187100
  34.0279080  63.0817780  52.2725860  30.7577150  66.6959860  59.7149780
  31.0880160  65.8280920  59.4828420  31.1868150  66.9018380  60.5454740
  35.3539070  65.0268870  57.3751750  35.0534610  64.9033840  58.2755660
  35.2476560  64.1677460  56.9667480  31.2467360  67.5630450  62.4531410
  30.8098350  67.7431250  63.2855560  31.8145040  68.3205070  62.3113130
  46.8829540  67.0647450  66.7408720  46.2831530  67.1240010  65.9972640
  47.0123440  66.1252430  66.8705570  48.1230990  64.8065270  52.0778430
  47.2923950  64.8741920  52.5485660  48.3002820  65.6969390  51.7745290
  31.0791790  60.0750680  58.8120290  30.4240630  59.8062320  58.1679990
  31.9169740  59.9655160  58.3622270  45.5681180  63.7899430  64.8384880
  44.7541020  64.2196590  65.1010670  45.9755380  64.4017840  64.2253930
  32.1167720  60.4603250  63.3523630  32.4840760  60.3730650  64.2319650
  31.5478540  59.6969800  63.2530490  46.9171580  58.9287630  66.3654100
  46.6857670  58.7000380  65.4652050  47.1776130  59.8487180  66.3198990
  31.6683720  57.3712340  67.2582050  30.7739770  57.3379100  67.5975760
  32.2081270  57.5699130  68.0233300  45.3559650  54.1544060  69.1433800
  46.2329830  54.1627460  69.5267800  45.3680490  53.4174900  68.5326150
  30.2929870  57.2849610  54.7545620  29.3893950  57.5479810  54.5797280
  30.7770490  57.5560780  53.9745580  32.8357080  56.3415150  52.6640000
  33.5448780  55.9198370  52.1787280  32.1197020  56.4090380  52.0323350
  45.6257230  68.5418030  58.3653150  46.2216300  68.2202600  57.6887570
  45.8835380  68.0689850  59.1566420  33.5319800  64.9735940  68.5143780
  33.4889430  64.6028850  69.3958240  33.6630810  65.9113510  68.6545600
  37.2325830  66.5295530  64.1153500  36.9917190  66.7970090  63.2284020
  38.1728470  66.7001260  64.1704360  39.4380250  52.9928220  67.8710010
  39.3769140  53.5850050  68.6205420  40.3780630  52.8854180  67.7260270
  42.0754810  52.6498280  67.5102300  42.6895220  52.9677570  66.8483380
  42.6204370  52.1646870  68.1298160  48.4929990  68.5489910  64.9164140
  47.9988270  68.9458780  64.1991270  47.8843280  67.9239120  65.3101420
  32.5976070  51.3292540  67.6241360  33.1459060  51.1480590  66.8607470
  32.6631380  50.5386650  68.1597670  33.3707830  67.9198190  65.6341560
  32.7768150  67.7882890  66.3731600  33.3631670  67.0836330  65.1683660
  46.1769440  69.1913330  62.1950880  45.7172410  69.9429140  61.8208900
  45.5481900  68.4719800  62.1365680  33.0020060  65.2856570  64.5849600
  32.2754120  64.6661860  64.5175550  33.0629210  65.6797180  63.7147680
  36.6065160  67.5001570  61.3699010  37.1230180  66.8888930  60.8447270
  37.2562540  68.0030350  61.8610020  39.3460660  68.3910060  62.1967990
  39.6338470  68.1364360  61.3201000  39.8583880  67.8387420  62.7873560
  31.2850060  68.6030960  57.7946360  31.1172100  67.9701640  58.4928250
  30.4184570  68.8090360  57.4440550  32.8912760  67.2964190  55.2396500
  32.3660380  67.6772220  54.5358460  32.8157340  67.9214960  55.9606210
  39.4133020  69.3126160  69.5636190  40.3400330  69.0770430  69.6072150
  39.3983450  70.1398160  69.0822220  47.6478080  68.8551730  56.5610440
  47.8230270  68.1689470  55.9171360  46.9499650  69.3798780  56.1687110
  36.5996630  51.9770910  69.3278070  36.3180900  52.4804510  68.5638890
  36.9816330  51.1792660  68.9620200  35.4905730  69.2446570  54.1145750
  36.2224550  68.9605850  53.5669640  35.7499400  69.0059850  55.0045130
  34.6520520  65.3611300  54.1192080  34.0229400  65.8296400  54.6677910
  34.7668350  64.5160520  54.5538270  43.2012090  51.3924490  69.9058540
  43.0877540  51.7119100  70.8010060  44.0181830  51.7937000  69.6095820
  45.9810580  68.5396020  69.3877230  46.7735900  68.0445250  69.1803190
  46.2743730  69.2186160  69.9952840  40.2388280  61.1895980  42.1502550
  39.4630380  60.7096420  42.4401120  40.8901210  60.5101630  41.9758710
  34.2554110  61.5015790  43.0278310  33.4238990  61.2464500  43.4274820
  34.8635090  61.5726560  43.7636230  44.2595710  65.5956170  40.9301680
  43.7977240  64.8243410  41.2588850  45.0721260  65.6222240  41.4354130
  34.2355370  65.5355880  43.2236330  34.5383410  64.6453620  43.0446550
  34.9798960  66.0926100  42.9958580  32.6646060  56.4617680  36.8120700
  31.7762760  56.8033650  36.7100580  32.9487250  56.2618000  35.9201530
  30.6279070  59.0623330  42.6960400  31.1995180  58.2945530  42.6964040
  30.6280610  59.3612090  41.7867010  40.4859020  67.8814180  40.5505670
  39.8670460  68.3371680  39.9800110  41.3410800  68.0365640  40.1495370
  39.6797270  63.8653170  42.1572710  39.6105550  62.9243110  41.9961840
  40.4417130  63.9554580  42.7295280  36.6815180  58.0135550  42.1784260
  37.1893400  58.5116520  42.8189280  37.2128420  57.2370750  42.0023620
  36.2154130  62.2929290  44.6221180  35.8823510  62.9198210  45.2642250
  36.3920810  62.8191170  43.8422850  35.4273230  64.2610090  46.4370360
  36.0447230  64.9361170  46.1554810  34.5666350  64.6698070  46.3457860
  30.7205570  63.4509950  35.3177210  30.3433550  63.9397050  34.5862110
  30.9778640  64.1235230  35.9483740  46.3450820  65.7249500  44.3525000
  45.6614340  66.3948610  44.3441670  46.8845110  65.9230150  43.5869860
  43.8809560  67.5693630  43.0670180  43.8936720  67.1655920  42.1992440
  43.3284780  68.3440920  42.9631610  45.1754980  64.2909850  38.1560350
  45.0651310  63.3484180  38.2809770  45.1723230  64.6525490  39.0423110
  43.2795000  62.4723470  44.3952790  43.6963790  62.2583580  43.5606250
  44.0034820  62.7296260  44.9661410  47.2257100  60.8710690  44.4869030
  46.3975730  60.9403780  44.0119160  47.8207580  61.4565000  44.0184860
  36.3231900  60.4439910  40.2942570  35.9188900  59.7317160  39.7988470
  36.4095020  60.0993150  41.1830610  36.7913600  64.1307470  42.4581780
  36.4941890  63.5252940  41.7789560  37.7413420  64.1684780  42.3471140
  44.8799210  67.7039340  46.1204880  44.4029770  68.5111530  45.9277490
  44.1961000  67.0517670  46.2731090  35.8832030  63.8689160  49.1089580
  34.9860560  64.0929130  49.3562980  35.9084900  63.9924100  48.1600980
  34.7103250  60.7402480  47.6846950  34.5711020  61.6125280  48.0534350
  33.8284610  60.3975290  47.5394890  41.0332630  65.6578350  38.9912080
  41.4728540  66.4002680  38.5767470  40.9719520  65.9004920  39.9151040
  36.5083600  66.6824180  49.8932100  36.4799030  67.0867130  49.0260530
  36.3448570  65.7534540  49.7303700  33.0236530  59.3384890  37.7949220
  32.9034130  60.0646980  37.1830490  32.7137420  58.5687800  37.3177130
  48.4598420  67.4651280  51.1896270  48.9358140  67.9434170  51.8685350
  49.0805580  67.3968770  50.4641770  30.6621900  62.5100030  43.6017860
  30.7402320  62.6448800  42.6573580  31.2763580  61.8015920  43.7945980
  31.9069530  64.2100220  40.0124040  31.4997610  64.3514810  39.1577640
  32.7982540  63.9260380  39.8095250  47.8631670  64.6564130  48.3496280
  47.9894730  64.4176010  47.4313460  47.9053050  63.8248670  48.8218360
  41.7248410  68.3592130  46.9191090  42.2393080  68.2700140  47.7213520
  40.8817490  68.7051830  47.2119000  43.7002810  68.6447470  36.3475090
  43.5403950  68.3550410  37.2456920  43.5349520  67.8687600  35.8120320
  36.1791190  68.4246000  38.1246710  36.0033670  67.5081540  37.9114510
  35.3246930  68.7833290  38.3644510  43.4028940  66.1535030  34.9073090
  42.7094100  66.1512320  34.2475370  44.1451800  65.7294350  34.4767260
  42.9678870  67.7797740  38.9821580  43.4235820  66.9987120  39.2960200
  43.3071390  68.4904560  39.5262760  30.7181420  63.5514200  46.1412320
  30.8812460  63.0819560  45.3231690  31.1833870  63.0437760  46.8061160
  35.2814410  57.8053530  38.9054140  35.0555330  57.5890700  39.8100760
  34.5006940  58.2381990  38.5600110  37.7213620  58.7039110  49.5714410
  37.6257220  57.7633840  49.4214810  38.5645600  58.9254180  49.1762480
  30.3411440  56.9801360  32.9680990  30.2586110  57.9232120  33.1095980
  29.9894500  56.8376270  32.0893340  41.7032180  59.0386190  43.6298850
  40.9713300  59.5473000  43.9788950  41.3056520  58.2216170  43.3287630
  38.2029720  56.7152470  35.0258100  38.3242540  56.6738950  35.9743920
  37.8178230  57.5776620  34.8704830  32.2920400  62.9265630  48.3008130
  31.9075190  62.2859300  48.8991090  32.6032590  63.6301750  48.8702860
  38.4417540  59.7742170  43.7816750  38.8087670  59.3000740  44.5278090
  38.2522600  60.6483740  44.1225090  36.2316910  58.8150810  46.1000960
  35.9273980  59.6942790  46.3251320  37.1863370  58.8750600  46.1358400
  34.7598700  63.0211800  36.6967810  33.9860960  62.4809420  36.5366530
  35.4893330  62.5018410  36.3585570  45.5186680  62.0177160  42.4894200
  46.2385800  62.5132450  42.0990310  45.3168500  61.3395050  41.8448070
  40.9005480  62.0886220  48.3763200  40.8342790  61.1681890  48.1220790
  40.2710620  62.1861660  49.0907840  34.8036100  62.6892180  40.3346620
  35.3214770  61.8860440  40.2803510  34.3520120  62.6271320  41.1763450
  32.2880640  59.6553550  47.2472320  31.9295580  60.3207400  47.8345660
  31.9935200  58.8237100  47.6184940  35.4893760  60.1137790  50.1311870
  35.1893900  60.2594970  49.2339690  36.2605000  59.5543080  50.0385260
  40.8322210  64.9106790  48.1267000  40.8466750  63.9787750  47.9085910
  40.1247310  64.9966550  48.7656770  45.9659280  59.0946610  34.3965610
  45.8823000  59.5260830  33.5462050  46.6853470  59.5544960  34.8292430
  46.9946530  65.9488870  37.1247740  46.3522690  65.2944490  37.3991460
  46.6077190  66.3543960  36.3488410  42.5733010  63.2774300  40.9719430
  42.9256830  62.6802430  40.3120800  41.6895340  62.9518530  41.1427680
  38.6596290  64.0371990  38.3789840  39.3467420  64.5841200  38.7597430
  37.8728710  64.5812720  38.4139450  30.7988690  59.6544810  33.8706920
  31.6683540  59.9369610  34.1542840  30.3079010  60.4680680  33.7555730
  40.2656110  66.5524360  45.2207500  40.9098330  66.7583740  45.8980920
  40.6285550  65.7912760  44.7678350  41.5388190  64.5556710  43.9384950
  42.1810420  63.8549870  44.0517120  42.0637540  65.3355150  43.7581840
  45.3843910  64.8405330  33.6624090  45.1581490  64.1235770  34.2548730
  44.9940110  64.5917770  32.8245840  43.3125810  65.3551610  47.1421010
  43.6482050  65.9418300  47.8198930  42.3926150  65.2244320  47.3718800
  31.1659940  68.8672190  34.4368550  31.5257580  69.4661530  33.7825820
  31.0252280  69.4132080  35.2103580  44.9660160  62.7577270  35.3238250
  44.6781860  63.2189960  36.1116130  45.7612330  62.2975040  35.5922470
  31.1501800  67.1327050  48.9110950  31.2592920  66.1921790  48.7706340
  30.4982360  67.3981800  48.2624680  39.1414390  65.4042940  50.3109070
  38.8211260  64.6852180  50.8554760  38.4672750  66.0798010  50.3845130
  37.1828560  66.2503390  35.2542220  37.1738660  66.9833080  34.6386730
  36.2626920  66.0034970  35.3469180  32.7835200  61.4718280  35.9988980
  32.1763150  62.2117180  36.0084280  33.2584550  61.5617640  35.1727180
  40.1688160  66.3131630  33.9167410  40.2700140  66.1095620  32.9869390
  39.2689900  66.0589910  34.1215190  39.3169980  58.2908690  45.8983840
  39.8155230  58.7654510  46.5635690  39.4592930  57.3672210  46.1053870
  38.8106270  68.8317950  38.6115080  39.0647770  68.7939340  37.6894450
  37.8618750  68.7051280  38.6043330  35.8949070  55.1797070  35.2742020
  36.7439600  55.6167220  35.2082210  35.5280340  55.4917330  36.1014080
  34.7940490  61.4329430  33.7477550  35.5603760  61.3210790  34.3102980
  34.8715180  60.7367400  33.0954320  33.4887250  58.8654500  34.4310440
  33.5690840  57.9182010  34.5427840  34.3807000  59.1961380  34.5371100
  46.8184430  66.9218680  41.8627850  46.9431850  67.7449850  42.3351660
  47.6849990  66.7109410  41.5152000  34.2901960  69.0149890  41.5344980
  35.0264440  68.4665350  41.8053550  34.6742880  69.8805900  41.3950970
  31.1747440  65.0823460  37.4086490  30.2487220  65.3244600  37.3991900
  31.6403870  65.9097720  37.2871240  33.2960240  68.1995960  50.7230560
  34.0972970  68.5208010  51.1365960  32.7812060  67.8391540  51.4450470
  37.4004270  68.1880200  33.3570550  38.1932880  68.4769030  32.9052340
  36.8808620  67.7572370  32.6783030  42.1324870  64.3075830  50.6705970
  41.5263030  64.3307430  49.9301720  41.8278980  63.5758870  51.2073220
  43.5625240  68.0356120  49.2815380  44.5146990  67.9514140  49.2315620
  43.4153460  68.6997830  49.9549170  46.4534440  67.4150330  34.7807290
  46.1675950  67.0015470  33.9661470  46.2553990  68.3438040  34.6607810
  31.0158050  60.6869420  49.6666610  31.5197070  60.1076700  50.2382840
  30.2765470  60.9709650  50.2042980  37.9181670  63.4083610  33.2212900
  37.8132310  62.7935960  33.9474280  37.7505890  62.8849500  32.4375910
  38.0695990  62.0940410  49.2002130  37.3041660  62.6625410  49.1156800
  38.2511950  61.8016620  48.3070360  45.2119340  63.8245740  49.7577150
  45.9528810  64.1621500  49.2544610  44.4492020  63.9937800  49.2046920
  33.0481130  58.8299010  50.5616680  33.0886470  58.5312880  51.4701910
  33.9026630  59.2306620  50.4024200  34.9886940  57.4091110  48.5291170
  34.4583400  56.9182060  47.9014510  35.6575010  57.8375310  47.9949100
  43.8865000  61.8760570  48.2932360  44.3006020  62.0305650  49.1422780
  42.9516000  62.0015790  48.4558140  38.6480230  61.8281050  46.2628290
  39.0668340  62.6713780  46.0904530  37.7288860  61.9653090  46.0335070
  40.9844130  59.5597230  47.6466130  41.1040340  58.9638370  48.3860970
  41.8438130  59.5966920  47.2267430  43.3232030  60.1134420  46.2228640
  42.7967250  60.6377040  45.6193780  43.6663370  60.7461810  46.8538370
  35.7218420  57.5027790  32.6678350  35.5207480  56.6395150  33.0291690
  35.5510470  57.4161150  31.7299950  36.4987650  68.1334060  47.3786020
  35.9608740  68.8580120  47.0594720  36.7521610  67.6564400  46.5883360
  34.5201220  54.6028410  32.6556230  34.8227120  54.6095840  31.7475380
  35.2595810  54.2526270  33.1523890  39.3549860  69.3685270  47.6372670
  39.2808560  70.2720410  47.9445040  38.4528700  69.0497170  47.6094740
  37.7386150  53.5463030  33.6412430  37.3908150  52.8687020  33.0614880
  37.9398920  53.0852540  34.4555820  39.9035190  68.5343780  35.2599030
  40.7985980  68.8728750  35.2817790  39.9352820  67.8123190  34.6323310
  33.5431350  63.9070830  33.4886030  33.9806220  64.4500500  34.1443610
  34.0279080  63.0817780  33.4982370  30.7577150  66.6959860  40.9406290
  31.0880160  65.8280920  40.7084930  31.1868150  66.9018380  41.7711250
  35.3539070  65.0268870  38.6008260  35.0534610  64.9033840  39.5012170
  35.2476560  64.1677460  38.1923990  31.2467360  67.5630450  43.6787920
  30.8098350  67.7431250  44.5112070  31.8145040  68.3205070  43.5369640
  46.8829540  67.0647450  47.9665230  46.2831530  67.1240010  47.2229150
  47.0123440  66.1252430  48.0962080  48.1230990  64.8065270  33.3034940
  47.2923950  64.8741920  33.7742170  48.3002820  65.6969390  33.0001800
  47.5787450  61.5512750  35.8069140  48.3406360  62.1209400  35.9128830
  47.5941820  60.9839950  36.5777450  31.0791790  60.0750680  40.0376800
  30.4240630  59.8062320  39.3936500  31.9169740  59.9655160  39.5878780
  48.5847420  62.4062850  40.6511070  48.9556250  61.6230170  40.2447040
  49.2249350  63.0951950  40.4728370  45.5681180  63.7899430  46.0641390
  44.7541020  64.2196590  46.3267180  45.9755380  64.4017840  45.4510440
  47.6306620  61.8447120  32.9641660  47.9055460  62.7526000  32.8360880
  47.4417360  61.7809650  33.9003650  47.5271960  59.7816110  37.9571090
  47.1515560  59.0144040  37.5252380  46.7975080  60.1638810  38.4446020
  32.1167720  60.4603250  44.5780140  32.4840760  60.3730650  45.4576160
  31.5478540  59.6969800  44.4787000  31.6683720  57.3712340  48.4838560
  30.7739770  57.3379100  48.8232270  32.2081270  57.5699130  49.2489810
  30.2929870  57.2849610  35.9802130  29.3893950  57.5479810  35.8053790
  30.7770490  57.5560780  35.2002090  32.8357080  56.3415150  33.8896510
  33.5448780  55.9198370  33.4043790  32.1197020  56.4090380  33.2579860
  45.6257230  68.5418030  39.5909660  46.2216300  68.2202600  38.9144080
  45.8835380  68.0689850  40.3822930  33.5319800  64.9735940  49.7400290
  33.4889430  64.6028850  50.6214750  33.6630810  65.9113510  49.8802110
  37.2325830  66.5295530  45.3410010  36.9917190  66.7970090  44.4540530
  38.1728470  66.7001260  45.3960870  48.4929990  68.5489910  46.1420650
  47.9988270  68.9458780  45.4247780  47.8843280  67.9239120  46.5357930
  33.3707830  67.9198190  46.8598070  32.7768150  67.7882890  47.5988110
  33.3631670  67.0836330  46.3940170  46.1769440  69.1913330  43.4207390
  45.7172410  69.9429140  43.0465410  45.5481900  68.4719800  43.3622190
  33.0020060  65.2856570  45.8106110  32.2754120  64.6661860  45.7432060
  33.0629210  65.6797180  44.9404190  36.6065160  67.5001570  42.5955520
  37.1230180  66.8888930  42.0703780  37.2562540  68.0030350  43.0866530
  39.3460660  68.3910060  43.4224500  39.6338470  68.1364360  42.5457510
  39.8583880  67.8387420  44.0130070  31.2850060  68.6030960  39.0202870
  31.1172100  67.9701640  39.7184760  30.4184570  68.8090360  38.6697060
  32.8912760  67.2964190  36.4653010  32.3660380  67.6772220  35.7614970
  32.8157340  67.9214960  37.1862720  34.2803230  52.9611790  35.0636700
  34.8095990  52.1741590  34.9344650  34.9131550  53.6402980  35.2972230
  39.4133020  69.3126160  50.7892700  40.3400330  69.0770430  50.8328660
  39.3983450  70.1398160  50.3078730  47.6478080  68.8551730  37.7866950
  47.8230270  68.1689470  37.1427870  46.9499650  69.3798780  37.3943620
  35.4905730  69.2446570  35.3402260  36.2224550  68.9605850  34.7926150
  35.7499400  69.0059850  36.2301640  34.6520520  65.3611300  35.3448590
  34.0229400  65.8296400  35.8934420  34.7668350  64.5160520  35.7794780
  45.9810580  68.5396020  50.6133740  46.7735900  68.0445250  50.4059700
  46.2743730  69.2186160  51.2209350  42.1070240  59.4116960  21.4949790
  42.0264290  58.4971570  21.2241500  41.6934660  59.9084030  20.7889500
  40.2388280  61.1895980  23.3759060  39.4630380  60.7096420  23.6657630
  40.8901210  60.5101630  23.2015220  34.2554110  61.5015790  24.2534820
  33.4238990  61.2464500  24.6531330  34.8635090  61.5726560  24.9892740
  44.2595710  65.5956170  22.1558190  43.7977240  64.8243410  22.4845360
  45.0721260  65.6222240  22.6610640  34.2355370  65.5355880  24.4492840
  34.5383410  64.6453620  24.2703060  34.9798960  66.0926100  24.2215090
  40.4859020  67.8814180  21.7762180  39.8670460  68.3371680  21.2056620
  41.3410800  68.0365640  21.3751880  39.6797270  63.8653170  23.3829220
  39.6105550  62.9243110  23.2218350  40.4417130  63.9554580  23.9551790
  40.7102440  56.6723550  23.6098150  41.0867260  55.7995430  23.4971820
  40.6121950  57.0082250  22.7188590  44.4926560  54.1673990  20.5426490
  45.3136180  53.6770560  20.5851970  44.5260640  54.7571650  21.2958330
  36.6815180  58.0135550  23.4040770  37.1893400  58.5116520  24.0445790
  37.2128420  57.2370750  23.2280130  48.7826110  56.1840740  27.1070120
  48.0778280  56.5722450  26.5885230  49.0484030  56.8791030  27.7091050
  41.3522370  62.7653420  19.1694090  40.7339640  63.2302870  18.6056810
  41.8645620  63.4580900  19.5863600  36.2154130  62.2929290  25.8477690
  35.8823510  62.9198210  26.4898760  36.3920810  62.8191170  25.0679360
  44.7288040  56.1074370  23.3154030  44.0243610  56.3959260  23.8957140
  45.0900200  56.9174480  22.9553590  35.4273230  64.2610090  27.6626870
  36.0447230  64.9361170  27.3811320  34.5666350  64.6698070  27.5714370
  30.7205570  63.4509950  16.5433720  30.3433550  63.9397050  15.8118620
  30.9778640  64.1235230  17.1740250  46.3450820  65.7249500  25.5781510
  45.6614340  66.3948610  25.5698180  46.8845110  65.9230150  24.8126370
  47.7974960  55.5529160  23.7063240  46.8499870  55.5868140  23.8378670
  48.1224950  56.3668110  24.0912600  43.8809560  67.5693630  24.2926690
  43.8936720  67.1655920  23.4248950  43.3284780  68.3440920  24.1888120
  45.1754980  64.2909850  19.3816860  45.0651310  63.3484180  19.5066280
  45.1723230  64.6525490  20.2679620  43.2795000  62.4723470  25.6209300
  43.6963790  62.2583580  24.7862760  44.0034820  62.7296260  26.1917920
  40.7175260  59.9175170  18.7379350  39.7904540  59.8512550  18.9667820
  40.8700080  60.8555300  18.6234590  40.7044340  56.1892170  15.7346510
  39.7648010  56.3506130  15.8198970  41.0227600  56.9077850  15.1882500
  47.2257100  60.8710690  25.7125540  46.3975730  60.9403780  25.2375670
  47.8207580  61.4565000  25.2441370  44.7472550  61.4795470  19.2414600
  44.1284970  61.1415020  18.5940900  44.7297000  60.8355230  19.9493790
  44.1899110  57.6580010  26.6580410  43.7770290  58.4833720  26.9120400
  43.4575060  57.0725050  26.4656770  36.3231900  60.4439910  21.5199080
  35.9188900  59.7317160  21.0244980  36.4095020  60.0993150  22.4087120
  36.7913600  64.1307470  23.6838290  36.4941890  63.5252940  23.0046070
  37.7413420  64.1684780  23.5727650  44.8799210  67.7039340  27.3461390
  44.4029770  68.5111530  27.1534000  44.1961000  67.0517670  27.4987600
  35.8832030  63.8689160  30.3346090  34.9860560  64.0929130  30.5819490
  35.9084900  63.9924100  29.3857490  42.9237250  60.7182280  16.2487350
  43.3630530  59.8804710  16.1025170  43.6365670  61.3511680  16.3351490
  34.7103250  60.7402480  28.9103460  34.5711020  61.6125280  29.2790860
  33.8284610  60.3975290  28.7651400  41.0332630  65.6578350  20.2168590
  41.4728540  66.4002680  19.8023980  40.9719520  65.9004920  21.1407550
  36.5083600  66.6824180  31.1188610  36.4799030  67.0867130  30.2517040
  36.3448570  65.7534540  30.9560210  46.5054390  51.9725090  14.5628390
  46.1927050  52.0651920  15.4627460  47.2666860  52.5506120  14.5125820
  33.0236530  59.3384890  19.0205730  32.9034130  60.0646980  18.4087000
  32.7137420  58.5687800  18.5433640  48.4598420  67.4651280  32.4152780
  48.9358140  67.9434170  33.0941860  49.0805580  67.3968770  31.6898280
  31.9069530  64.2100220  21.2380550  31.4997610  64.3514810  20.3834150
  32.7982540  63.9260380  21.0351760  47.8631670  64.6564130  29.5752790
  47.9894730  64.4176010  28.6569970  47.9053050  63.8248670  30.0474870
  41.7248410  68.3592130  28.1447600  42.2393080  68.2700140  28.9470030
  40.8817490  68.7051830  28.4375510  43.7002810  68.6447470  17.5731600
  43.5403950  68.3550410  18.4713430  43.5349520  67.8687600  17.0376830
  36.1791190  68.4246000  19.3503220  36.0033670  67.5081540  19.1371020
  35.3246930  68.7833290  19.5901020  43.4028940  66.1535030  16.1329600
  42.7094100  66.1512320  15.4731880  44.1451800  65.7294350  15.7023770
  42.9678870  67.7797740  20.2078090  43.4235820  66.9987120  20.5216710
  43.3071390  68.4904560  20.7519270  39.7770000  55.5488480  28.0064720
  39.3149370  55.7571500  28.8184660  39.3748110  54.7347830  27.7035390
  41.8724220  58.2699180  31.2360170  42.1977630  57.4362930  30.8962400
  42.6604550  58.7927700  31.3838500  38.6059010  52.3030660  17.2835230
  37.9813190  52.2990530  18.0088540  38.5189130  51.4361620  16.8871200
  35.2814410  57.8053530  20.1310650  35.0555330  57.5890700  21.0357270
  34.5006940  58.2381990  19.7856620  42.5112170  57.8116900  18.7301300
  41.9121060  58.5352700  18.5464920  43.0591780  57.7493680  17.9477750
  37.7213620  58.7039110  30.7970920  37.6257220  57.7633840  30.6471320
  38.5645600  58.9254180  30.4018990  41.1177040  56.4480440  20.7604580
  41.5106610  56.7652640  19.9473270  41.4793890  55.5692320  20.8749100
  32.8524160  55.1152780  28.9504700  32.4587550  55.9627990  29.1577480
  32.1642560  54.4779150  29.1413340  30.3411440  56.9801360  14.1937500
  30.2586110  57.9232120  14.3352490  29.9894500  56.8376270  13.3149850
  41.7032180  59.0386190  24.8555360  40.9713300  59.5473000  25.2045460
  41.3056520  58.2216170  24.5544140  38.1409570  55.7140390  23.2607850
  38.1445630  55.2730340  22.4112390  39.0360690  56.0357720  23.3679670
  38.2029720  56.7152470  16.2514610  38.3242540  56.6738950  17.2000430
  37.8178230  57.5776620  16.0961340  42.1658090  54.4919870  24.2678300
  42.1830830  54.9428520  25.1120150  41.9173670  53.5925510  24.4811740
  37.2151220  59.0253610  15.6497910  36.6468120  58.5771860  15.0233820
  37.9240220  59.3846390  15.1163060  32.2920400  62.9265630  29.5264640
  31.9075190  62.2859300  30.1247600  32.6032590  63.6301750  30.0959370
  38.4417540  59.7742170  25.0073260  38.8087670  59.3000740  25.7534600
  38.2522600  60.6483740  25.3481600  36.2316910  58.8150810  27.3257470
  35.9273980  59.6942790  27.5507830  37.1863370  58.8750600  27.3614910
  34.7598700  63.0211800  17.9224320  33.9860960  62.4809420  17.7623040
  35.4893330  62.5018410  17.5842080  45.5186680  62.0177160  23.7150710
  46.2385800  62.5132450  23.3246820  45.3168500  61.3395050  23.0704580
  40.9796620  53.4115120  17.8580100  40.1661230  52.9128290  17.7825410
  40.7858570  54.2513370  17.4416450  40.9005480  62.0886220  29.6019710
  40.8342790  61.1681890  29.3477300  40.2710620  62.1861660  30.3164350
  43.6945010  57.7834770  16.1542260  44.5824630  58.0952000  15.9793600
  43.6650100  56.9107020  15.7622840  34.8036100  62.6892180  21.5603130
  35.3214770  61.8860440  21.5060020  34.3520120  62.6271320  22.4019960
  39.6905600  63.9558460  16.8330430  40.0321300  64.7000690  16.3373750
  38.8618310  64.2689580  17.1955260  35.4893760  60.1137790  31.3568380
  35.1893900  60.2594970  30.4596200  36.2605000  59.5543080  31.2641770
  40.8322210  64.9106790  29.3523510  40.8466750  63.9787750  29.1342420
  40.1247310  64.9966550  29.9913280  45.9659280  59.0946610  15.6222120
  45.8823000  59.5260830  14.7718560  46.6853470  59.5544960  16.0548940
  47.0433420  61.5514130  28.6992090  46.3181610  62.1442910  28.5021480
  47.5708880  61.5437670  27.9005460  46.9946530  65.9488870  18.3504250
  46.3522690  65.2944490  18.6247970  46.6077190  66.3543960  17.5744920
  42.5733010  63.2774300  22.1975940  42.9256830  62.6802430  21.5377310
  41.6895340  62.9518530  22.3684190  38.6596290  64.0371990  19.6046350
  39.3467420  64.5841200  19.9853940  37.8728710  64.5812720  19.6395960
  30.7988690  59.6544810  15.0963430  31.6683540  59.9369610  15.3799350
  30.3079010  60.4680680  14.9812240  37.9623500  61.0418020  19.2171710
  38.4186280  61.8523270  19.4431900  37.6111710  60.7241160  20.0490200
  40.2656110  66.5524360  26.4464010  40.9098330  66.7583740  27.1237430
  40.6285550  65.7912760  25.9934860  41.5388190  64.5556710  25.1641460
  42.1810420  63.8549870  25.2773630  42.0637540  65.3355150  24.9838350
  45.3843910  64.8405330  14.8880600  45.1581490  64.1235770  15.4805240
  44.9940110  64.5917770  14.0502350  43.3125810  65.3551610  28.3677520
  43.6482050  65.9418300  29.0455440  42.3926150  65.2244320  28.5975310
  31.1659940  68.8672190  15.6625060  31.5257580  69.4661530  15.0082330
  31.0252280  69.4132080  16.4360090  44.9660160  62.7577270  16.5494760
  44.6781860  63.2189960  17.3372640  45.7612330  62.2975040  16.8178980
  31.1501800  67.1327050  30.1367460  31.2592920  66.1921790  29.9962850
  30.4982360  67.3981800  29.4881190  39.1414390  65.4042940  31.5365580
  38.8211260  64.6852180  32.0811270  38.4672750  66.0798010  31.6101640
  37.1828560  66.2503390  16.4798730  37.1738660  66.9833080  15.8643240
  36.2626920  66.0034970  16.5725690  32.7835200  61.4718280  17.2245490
  32.1763150  62.2117180  17.2340790  33.2584550  61.5617640  16.3983690
  42.3567990  55.6369100  26.9002380  42.7248810  54.8164310  27.2281950
  41.4966190  55.6970990  27.3158030  45.7230020  54.5926040  17.7089940
  45.0943180  54.6971710  16.9948170  45.2281940  54.8122820  18.4983820
  40.1688160  66.3131630  15.1423920  40.2700140  66.1095620  14.2125900
  39.2689900  66.0589910  15.3471700  37.6914050  56.8711990  19.1247820
  36.9830200  57.3398330  19.5661430  37.9758530  56.2134000  19.7593010
  39.3169980  58.2908690  27.1240350  39.8155230  58.7654510  27.7892200
  39.4592930  57.3672210  27.3310380  41.7229480  53.5962650  20.5643610
  41.5997260  53.6148780  19.6153120  42.6714040  53.6441590  20.6842010
  38.8106270  68.8317950  19.8371590  39.0647770  68.7939340  18.9150960
  37.8618750  68.7051280  19.8299840  35.8949070  55.1797070  16.4998530
  36.7439600  55.6167220  16.4338720  35.5280340  55.4917330  17.3270590
  44.8158850  59.7509830  21.4130100  43.8748990  59.7660060  21.5877790
  45.1302920  58.9645790  21.8590400  34.7940490  61.4329430  14.9734060
  35.5603760  61.3210790  15.5359490  34.8715180  60.7367400  14.3210830
  33.4887250  58.8654500  15.6566950  33.5690840  57.9182010  15.7684350
  34.3807000  59.1961380  15.7627610  46.8184430  66.9218680  23.0884360
  46.9431850  67.7449850  23.5608170  47.6849990  66.7109410  22.7408510
  34.2901960  69.0149890  22.7601490  35.0264440  68.4665350  23.0310060
  34.6742880  69.8805900  22.6207480  31.1747440  65.0823460  18.6343000
  30.2487220  65.3244600  18.6248410  31.6403870  65.9097720  18.5127750
  33.2960240  68.1995960  31.9487070  34.0972970  68.5208010  32.3622470
  32.7812060  67.8391540  32.6706980  37.4004270  68.1880200  14.5827060
  38.1932880  68.4769030  14.1308850  36.8808620  67.7572370  13.9039540
  42.1324870  64.3075830  31.8962480  41.5263030  64.3307430  31.1558230
  41.8278980  63.5758870  32.4329730  43.5625240  68.0356120  30.5071890
  44.5146990  67.9514140  30.4572130  43.4153460  68.6997830  31.1805680
  46.4534440  67.4150330  16.0063800  46.1675950  67.0015470  15.1917980
  46.2553990  68.3438040  15.8864320  31.0158050  60.6869420  30.8923120
  31.5197070  60.1076700  31.4639350  30.2765470  60.9709650  31.4299490
  37.9181670  63.4083610  14.4469410  37.8132310  62.7935960  15.1730790
  37.7505890  62.8849500  13.6632420  38.0695990  62.0940410  30.4258640
  37.3041660  62.6625410  30.3413310  38.2511950  61.8016620  29.5326870
  41.1584400  62.4703640  15.0511400  40.6094500  62.9172940  15.6954140
  41.7803660  61.9652890  15.5749070  45.2119340  63.8245740  30.9833660
  45.9528810  64.1621500  30.4801120  44.4492020  63.9937800  30.4303430
  33.0481130  58.8299010  31.7873190  33.0886470  58.5312880  32.6958420
  33.9026630  59.2306620  31.6280710  36.8259520  61.4294560  16.9476700
  37.2475940  61.2634430  17.7908090  36.9510360  60.6194790  16.4531840
  34.9886940  57.4091110  29.7547680  34.4583400  56.9182060  29.1271020
  35.6575010  57.8375310  29.2205610  39.3387160  60.4532170  14.1953800
  39.8592820  59.7381190  13.8294950  39.9855560  61.0918040  14.4954310
  43.8865000  61.8760570  29.5188870  44.3006020  62.0305650  30.3679290
  42.9516000  62.0015790  29.6814650  44.3587170  59.2156730  31.5228020
  44.9407940  58.4609050  31.4348500  44.5348940  59.7464170  30.7459500
  35.4759240  54.3753480  29.8344970  35.3816110  53.7574230  29.1095840
  34.8956630  55.1019770  29.6074880  38.2420680  52.9326720  26.8672360
  37.7937980  52.9550980  26.0217910  37.6085880  52.5345740  27.4642660
  38.6480230  61.8281050  27.4884800  39.0668340  62.6713780  27.3161040
  37.7288860  61.9653090  27.2591580  40.9844130  59.5597230  28.8722640
  41.1040340  58.9638370  29.6117480  41.8438130  59.5966920  28.4523940
  43.3232030  60.1134420  27.4485150  42.7967250  60.6377040  26.8450290
  43.6663370  60.7461810  28.0794880  35.7218420  57.5027790  13.8934860
  35.5207480  56.6395150  14.2548200  35.5510470  57.4161150  12.9556460
  36.4987650  68.1334060  28.6042530  35.9608740  68.8580120  28.2851230
  36.7521610  67.6564400  27.8139870  37.7512900  56.1018580  30.1298460
  38.3412590  55.7934430  30.8176280  36.9333140  55.6298330  30.2858360
  43.2006730  52.3136020  16.4221740  43.4809020  51.4703920  16.7781160
  42.4272460  52.5459130  16.9360490  34.5201220  54.6028410  13.8812740
  34.8227120  54.6095840  12.9731890  35.2595810  54.2526270  14.3780400
  39.3549860  69.3685270  28.8629180  39.2808560  70.2720410  29.1701550
  38.4528700  69.0497170  28.8351250  37.7386150  53.5463030  14.8668940
  37.3908150  52.8687020  14.2871390  37.9398920  53.0852540  15.6812330
  39.9035190  68.5343780  16.4855540  40.7985980  68.8728750  16.5074300
  39.9352820  67.8123190  15.8579820  33.5431350  63.9070830  14.7142540
  33.9806220  64.4500500  15.3700120  34.0279080  63.0817780  14.7238880
  30.7577150  66.6959860  22.1662800  31.0880160  65.8280920  21.9341440
  31.1868150  66.9018380  22.9967760  35.3539070  65.0268870  19.8264770
  35.0534610  64.9033840  20.7268680  35.2476560  64.1677460  19.4180500
  31.2467360  67.5630450  24.9044430  30.8098350  67.7431250  25.7368580
  31.8145040  68.3205070  24.7626150  46.8829540  67.0647450  29.1921740
  46.2831530  67.1240010  28.4485660  47.0123440  66.1252430  29.3218590
  48.1230990  64.8065270  14.5291450  47.2923950  64.8741920  14.9998680
  48.3002820  65.6969390  14.2258310  47.5787450  61.5512750  17.0325650
  48.3406360  62.1209400  17.1385340  47.5941820  60.9839950  17.8033960
  31.0791790  60.0750680  21.2633310  30.4240630  59.8062320  20.6193010
  31.9169740  59.9655160  20.8135290  48.5847420  62.4062850  21.8767580
  48.9556250  61.6230170  21.4703550  49.2249350  63.0951950  21.6984880
  45.5681180  63.7899430  27.2897900  44.7541020  64.2196590  27.5523690
  45.9755380  64.4017840  26.6766950  47.6306620  61.8447120  14.1898170
  47.9055460  62.7526000  14.0617390  47.4417360  61.7809650  15.1260160
  44.0282230  54.8691970  15.4851800  44.4467110  54.6822950  14.6448460
  43.7218290  54.0171020  15.7954730  47.5271960  59.7816110  19.1827600
  47.1515560  59.0144040  18.7508890  46.7975080  60.1638810  19.6702530
  46.9171580  58.9287630  28.8167120  46.6857670  58.7000380  27.9165070
  47.1776130  59.8487180  28.7712010  46.8022920  58.0073600  22.4834840
  47.3260400  57.5136250  21.8525010  47.3882340  58.1423960  23.2282410
  46.9812640  58.0913470  26.0054390  46.0315350  58.0577010  26.1199380
  47.1625650  59.0013580  25.7704160  32.8357080  56.3415150  15.1153020
  33.5448780  55.9198370  14.6300300  32.1197020  56.4090380  14.4836370
  46.2922890  57.2646950  18.4227250  46.7882010  57.0317820  19.2076130
  46.0938960  56.4258790  18.0064890  47.7210050  55.9007900  20.9564930
  47.6109330  55.7463940  21.8947200  48.4817640  55.3728840  20.7140340
  48.6100320  53.7315820  14.1971070  49.5349630  53.5997000  13.9889360
  48.5876110  53.8108640  15.1507520  48.6838810  54.5026480  16.8227780
  47.8890310  54.4371600  17.3520690  48.8882090  55.4377120  16.8113130
  45.6257230  68.5418030  20.8166170  46.2216300  68.2202600  20.1400590
  45.8835380  68.0689850  21.6079440  33.5319800  64.9735940  30.9656800
  33.4889430  64.6028850  31.8471260  33.6630810  65.9113510  31.1058620
  37.2325830  66.5295530  26.5666520  36.9917190  66.7970090  25.6797040
  38.1728470  66.7001260  26.6217380  39.4380250  52.9928220  30.3223030
  39.3769140  53.5850050  31.0718440  40.3780630  52.8854180  30.1773290
  48.4929990  68.5489910  27.3677160  47.9988270  68.9458780  26.6504290
  47.8843280  67.9239120  27.7614440  33.3707830  67.9198190  28.0854580
  32.7768150  67.7882890  28.8244620  33.3631670  67.0836330  27.6196680
  43.7234830  53.4201290  27.6726330  43.3948190  52.6053050  27.2928060
  44.6717130  53.3771100  27.5492020  46.1769440  69.1913330  24.6463900
  45.7172410  69.9429140  24.2721920  45.5481900  68.4719800  24.5878700
  33.0020060  65.2856570  27.0362620  32.2754120  64.6661860  26.9688570
  33.0629210  65.6797180  26.1660700  36.6065160  67.5001570  23.8212030
  37.1230180  66.8888930  23.2960290  37.2562540  68.0030350  24.3123040
  39.3460660  68.3910060  24.6481010  39.6338470  68.1364360  23.7714020
  39.8583880  67.8387420  25.2386580  45.1158740  52.8323360  23.2726610
  45.5566830  52.7768460  22.4248210  44.8466330  53.7481370  23.3436790
  46.9797310  52.4638600  21.2835430  46.9185710  51.5199820  21.1366450
  47.7589340  52.5718690  21.8288890  31.2850060  68.6030960  20.2459380
  31.1172100  67.9701640  20.9441270  30.4184570  68.8090360  19.8953570
  38.4491890  54.5487010  20.7393550  37.6366400  54.1743900  20.3989430
  38.9533530  53.7932090  21.0414740  42.9516870  51.2129460  21.9776620
  43.5546240  51.7849670  22.4525140  42.2109860  51.7768900  21.7550520
  46.0951470  51.6151020  17.2516900  46.2902100  52.5134470  17.5184330
  45.3081340  51.3838100  17.7449850  32.8912760  67.2964190  17.6909520
  32.3660380  67.6772220  16.9871480  32.8157340  67.9214960  18.4119230
  39.4133020  69.3126160  32.0149210  40.3400330  69.0770430  32.0585170
  39.3983450  70.1398160  31.5335240  47.6478080  68.8551730  19.0123460
  47.8230270  68.1689470  18.3684380  46.9499650  69.3798780  18.6200130
  35.4905730  69.2446570  16.5658770  36.2224550  68.9605850  16.0182660
  35.7499400  69.0059850  17.4558150  34.6520520  65.3611300  16.5705100
  34.0229400  65.8296400  17.1190930  34.7668350  64.5160520  17.0051290
  45.9810580  68.5396020  31.8390250  46.7735900  68.0445250  31.6316210
  46.2743730  69.2186160  32.4465860  42.1070240  59.4116960   2.7206300
  42.0264290  58.4971570   2.4498010  41.6934660  59.9084030   2.0146010
  40.2388280  61.1895980   4.6015570  39.4630380  60.7096420   4.8914140
  40.8901210  60.5101630   4.4271730  34.2554110  61.5015790   5.4791330
  33.4238990  61.2464500   5.8787840  34.8635090  61.5726560   6.2149250
  44.2595710  65.5956170   3.3814700  43.7977240  64.8243410   3.7101870
  45.0721260  65.6222240   3.8867150  34.2355370  65.5355880   5.6749350
  34.5383410  64.6453620   5.4959570  34.9798960  66.0926100   5.4471600
  30.6279070  59.0623330   5.1473420  31.1995180  58.2945530   5.1477060
  30.6280610  59.3612090   4.2380030  40.4859020  67.8814180   3.0018690
  39.8670460  68.3371680   2.4313130  41.3410800  68.0365640   2.6008390
  39.6797270  63.8653170   4.6085730  39.6105550  62.9243110   4.4474860
  40.4417130  63.9554580   5.1808300  31.8703940  54.4707690   6.9342350
  31.6906780  53.5733440   7.2145110  31.4684020  55.0179560   7.6089300
  40.7102440  56.6723550   4.8354660  41.0867260  55.7995430   4.7228330
  40.6121950  57.0082250   3.9445100  44.4926560  54.1673990   1.7683000
  45.3136180  53.6770560   1.8108480  44.5260640  54.7571650   2.5214840
  32.4890610  56.9668190   5.5424690  33.1700720  57.2306560   6.1612090
  32.1738660  56.1269060   5.8762700  36.6815180  58.0135550   4.6297280
  37.1893400  58.5116520   5.2702300  37.2128420  57.2370750   4.4536640
  48.7826110  56.1840740   8.3326630  48.0778280  56.5722450   7.8141740
  49.0484030  56.8791030   8.9347560  34.9651280  52.6534110   8.8960700
  34.9669720  53.1706500   8.0906600  34.1355590  52.1764290   8.8730630
  36.2154130  62.2929290   7.0734200  35.8823510  62.9198210   7.7155270
  36.3920810  62.8191170   6.2935870  44.7288040  56.1074370   4.5410540
  44.0243610  56.3959260   5.1213650  45.0900200  56.9174480   4.1810100
  34.6466610  54.3644070   6.9031150  34.9883420  55.2086120   6.6085020
  33.7082420  54.5127810   7.0196490  35.4273230  64.2610090   8.8883380
  36.0447230  64.9361170   8.6067830  34.5666350  64.6698070   8.7970880
  46.3450820  65.7249500   6.8038020  45.6614340  66.3948610   6.7954690
  46.8845110  65.9230150   6.0382880  47.7974960  55.5529160   4.9319750
  46.8499870  55.5868140   5.0635180  48.1224950  56.3668110   5.3169110
  38.3294500  51.8526340   3.2275740  38.6369480  51.2973230   2.5111240
  37.3995200  51.9870800   3.0448730  43.8809560  67.5693630   5.5183200
  43.8936720  67.1655920   4.6505460  43.3284780  68.3440920   5.4144630
  43.2795000  62.4723470   6.8465810  43.6963790  62.2583580   6.0119270
  44.0034820  62.7296260   7.4174430  47.2257100  60.8710690   6.9382050
  46.3975730  60.9403780   6.4632180  47.8207580  61.4565000   6.4697880
  44.1899110  57.6580010   7.8836920  43.7770290  58.4833720   8.1376910
  43.4575060  57.0725050   7.6913280  36.7913600  64.1307470   4.9094800
  36.4941890  63.5252940   4.2302580  37.7413420  64.1684780   4.7984160
  35.0360520  57.2183120   6.5254630  35.5875110  57.3278460   5.7507880
  35.5504030  57.5920720   7.2409860  44.8799210  67.7039340   8.5717900
  44.4029770  68.5111530   8.3790510  44.1961000  67.0517670   8.7244110
  35.8832030  63.8689160  11.5602600  34.9860560  64.0929130  11.8076000
  35.9084900  63.9924100  10.6114000  34.7103250  60.7402480  10.1359970
  34.5711020  61.6125280  10.5047370  33.8284610  60.3975290   9.9907910
  36.5083600  66.6824180  12.3445120  36.4799030  67.0867130  11.4773550
  36.3448570  65.7534540  12.1816720  48.4598420  67.4651280  13.6409290
  48.9358140  67.9434170  14.3198370  49.0805580  67.3968770  12.9154790
  30.6621900  62.5100030   6.0530880  30.7402320  62.6448800   5.1086600
  31.2763580  61.8015920   6.2459000  47.8631670  64.6564130  10.8009300
  47.9894730  64.4176010   9.8826480  47.9053050  63.8248670  11.2731380
  41.7248410  68.3592130   9.3704110  42.2393080  68.2700140  10.1726540
  40.8817490  68.7051830   9.6632020  47.7155680  56.7096590  11.7659040
  47.0999950  57.2176260  11.2374500  47.3952100  55.8094920  11.7084980
  30.7181420  63.5514200   8.5925340  30.8812460  63.0819560   7.7744710
  31.1833870  63.0437760   9.2574180  35.4900190  52.6819960   3.6285910
  35.0468340  53.4629500   3.2970430  36.0485180  53.0049850   4.3356850
  39.7770000  55.5488480   9.2321230  39.3149370  55.7571500  10.0441170
  39.3748110  54.7347830   8.9291900  44.7774510  56.7697430  10.3617890
  43.9268100  56.4703180  10.6826960  44.6176300  57.0139440   9.4501710
  41.8724220  58.2699180  12.4616680  42.1977630  57.4362930  12.1218910
  42.6604550  58.7927700  12.6095010  37.5276090  53.2267290   5.4875510
  37.8248420  54.1330120   5.4067530  38.0761650  52.7386070   4.8735080
  37.7213620  58.7039110  12.0227430  37.6257220  57.7633840  11.8727830
  38.5645600  58.9254180  11.6275500  32.8524160  55.1152780  10.1761210
  32.4587550  55.9627990  10.3833990  32.1642560  54.4779150  10.3669850
  39.4269210  55.1987750  13.2457950  38.7367530  55.0059950  13.8804040
  40.1701510  55.4822390  13.7782250  30.1541210  53.0381240   4.2091290
  29.8654260  53.6084100   4.9216270  30.8986970  52.5585690   4.5722520
  41.7032180  59.0386190   6.0811870  40.9713300  59.5473000   6.4301970
  41.3056520  58.2216170   5.7800650  38.1409570  55.7140390   4.4864360
  38.1445630  55.2730340   3.6368900  39.0360690  56.0357720   4.5936180
  33.9911950  55.5966880   3.4458570  33.6512000  56.0742110   4.2025620
  33.2289270  55.1432000   3.0859670  42.1658090  54.4919870   5.4934810
  42.1830830  54.9428520   6.3376660  41.9173670  53.5925510   5.7068250
  45.5928840  51.9052050  11.3321190  45.9174610  51.1741710  11.8579170
  45.6285350  51.5865690  10.4302180  32.2920400  62.9265630  10.7521150
  31.9075190  62.2859300  11.3504110  32.6032590  63.6301750  11.3215880
  38.4417540  59.7742170   6.2329770  38.8087670  59.3000740   6.9791110
  38.2522600  60.6483740   6.5738110  31.3058030  54.5185860   2.3623240
  31.0204950  54.1541530   3.2001860  31.2436890  53.7866320   1.7486380
  36.2316910  58.8150810   8.5513980  35.9273980  59.6942790   8.7764340
  37.1863370  58.8750600   8.5871420  45.5186680  62.0177160   4.9407220
  46.2385800  62.5132450   4.5503330  45.3168500  61.3395050   4.2961090
  40.9005480  62.0886220  10.8276220  40.8342790  61.1681890  10.5733810
  40.2710620  62.1861660  11.5420860  34.8036100  62.6892180   2.7859640
  35.3214770  61.8860440   2.7316530  34.3520120  62.6271320   3.6276470
  32.2880640  59.6553550   9.6985340  31.9295580  60.3207400  10.2858680
  31.9935200  58.8237100  10.0697960  35.4893760  60.1137790  12.5824890
  35.1893900  60.2594970  11.6852710  36.2605000  59.5543080  12.4898280
  40.8322210  64.9106790  10.5780020  40.8466750  63.9787750  10.3598930
  40.1247310  64.9966550  11.2169790  47.0433420  61.5514130   9.9248600
  46.3181610  62.1442910   9.7277990  47.5708880  61.5437670   9.1261970
  42.5733010  63.2774300   3.4232450  42.9256830  62.6802430   2.7633820
  41.6895340  62.9518530   3.5940700  40.2656110  66.5524360   7.6720520
  40.9098330  66.7583740   8.3493940  40.6285550  65.7912760   7.2191370
  41.5388190  64.5556710   6.3897970  42.1810420  63.8549870   6.5030140
  42.0637540  65.3355150   6.2094860  43.3125810  65.3551610   9.5934030
  43.6482050  65.9418300  10.2711950  42.3926150  65.2244320   9.8231820
  30.8629210  53.1446790  10.3757440  30.1487730  53.3443710  10.9810050
  31.2824250  52.3686360  10.7472240  31.1501800  67.1327050  11.3623970
  31.2592920  66.1921790  11.2219360  30.4982360  67.3981800  10.7137700
  39.1414390  65.4042940  12.7622090  38.8211260  64.6852180  13.3067780
  38.4672750  66.0798010  12.8358150  42.3567990  55.6369100   8.1258890
  42.7248810  54.8164310   8.4538460  41.4966190  55.6970990   8.5414540
  39.3169980  58.2908690   8.3496860  39.8155230  58.7654510   9.0148710
  39.4592930  57.3672210   8.5566890  46.5236840  54.5076650   9.1925250
  46.0210440  55.2482050   9.5319060  47.3393500  54.8960650   8.8762040
  44.8158850  59.7509830   2.6386610  43.8748990  59.7660060   2.8134300
  45.1302920  58.9645790   3.0846910  46.8184430  66.9218680   4.3140870
  46.9431850  67.7449850   4.7864680  47.6849990  66.7109410   3.9665020
  34.2901960  69.0149890   3.9858000  35.0264440  68.4665350   4.2566570
  34.6742880  69.8805900   3.8463990  33.2960240  68.1995960  13.1743580
  34.0972970  68.5208010  13.5878980  32.7812060  67.8391540  13.8963490
  42.1324870  64.3075830  13.1218990  41.5263030  64.3307430  12.3814740
  41.8278980  63.5758870  13.6586240  43.5625240  68.0356120  11.7328400
  44.5146990  67.9514140  11.6828640  43.4153460  68.6997830  12.4062190
  31.0158050  60.6869420  12.1179630  31.5197070  60.1076700  12.6895860
  30.2765470  60.9709650  12.6556000  38.0695990  62.0940410  11.6515150
  37.3041660  62.6625410  11.5669820  38.2511950  61.8016620  10.7583380
  45.2119340  63.8245740  12.2090170  45.9528810  64.1621500  11.7057630
  44.4492020  63.9937800  11.6559940  33.0481130  58.8299010  13.0129700
  33.0886470  58.5312880  13.9214930  33.9026630  59.2306620  12.8537220
  34.9886940  57.4091110  10.9804190  34.4583400  56.9182060  10.3527530
  35.6575010  57.8375310  10.4462120  43.8865000  61.8760570  10.7445380
  44.3006020  62.0305650  11.5935800  42.9516000  62.0015790  10.9071160
  44.3587170  59.2156730  12.7484530  44.9407940  58.4609050  12.6605010
  44.5348940  59.7464170  11.9716010  35.4759240  54.3753480  11.0601480
  35.3816110  53.7574230  10.3352350  34.8956630  55.1019770  10.8331390
  38.2420680  52.9326720   8.0928870  37.7937980  52.9550980   7.2474420
  37.6085880  52.5345740   8.6899170  38.6480230  61.8281050   8.7141310
  39.0668340  62.6713780   8.5417550  37.7288860  61.9653090   8.4848090
  40.9844130  59.5597230  10.0979150  41.1040340  58.9638370  10.8373990
  41.8438130  59.5966920   9.6780450  43.3232030  60.1134420   8.6741660
  42.7967250  60.6377040   8.0706800  43.6663370  60.7461810   9.3051390
  36.4987650  68.1334060   9.8299040  35.9608740  68.8580120   9.5107740
  36.7521610  67.6564400   9.0396380  37.7512900  56.1018580  11.3554970
  38.3412590  55.7934430  12.0432790  36.9333140  55.6298330  11.5114870
  42.5706330  55.7184390  11.5887990  41.8821850  55.0565930  11.5237980
  43.2912350  55.2722660  12.0336450  39.3549860  69.3685270  10.0885690
  39.2808560  70.2720410  10.3958060  38.4528700  69.0497170  10.0607760
  30.7577150  66.6959860   3.3919310  31.0880160  65.8280920   3.1597950
  31.1868150  66.9018380   4.2224270  31.2467360  67.5630450   6.1300940
  30.8098350  67.7431250   6.9625090  31.8145040  68.3205070   5.9882660
  46.8829540  67.0647450  10.4178250  46.2831530  67.1240010   9.6742170
  47.0123440  66.1252430  10.5475100  31.0791790  60.0750680   2.4889820
  30.4240630  59.8062320   1.8449520  31.9169740  59.9655160   2.0391800
  48.5847420  62.4062850   3.1024090  48.9556250  61.6230170   2.6960060
  49.2249350  63.0951950   2.9241390  45.5681180  63.7899430   8.5154410
  44.7541020  64.2196590   8.7780200  45.9755380  64.4017840   7.9023460
  32.1167720  60.4603250   7.0293160  32.4840760  60.3730650   7.9089180
  31.5478540  59.6969800   6.9300020  46.9171580  58.9287630  10.0423630
  46.6857670  58.7000380   9.1421580  47.1776130  59.8487180   9.9968520
  31.6683720  57.3712340  10.9351580  30.7739770  57.3379100  11.2745290
  32.2081270  57.5699130  11.7002830  45.3559650  54.1544060  12.8203330
  46.2329830  54.1627460  13.2037330  45.3680490  53.4174900  12.2095680
  46.8022920  58.0073600   3.7091350  47.3260400  57.5136250   3.0781520
  47.3882340  58.1423960   4.4538920  46.9812640  58.0913470   7.2310900
  46.0315350  58.0577010   7.3455890  47.1625650  59.0013580   6.9960670
  32.1723430  51.6460670   5.2834800  32.8199620  51.0958050   4.8429960
  32.5925270  51.9003820   6.1050610  47.7210050  55.9007900   2.1821440
  47.6109330  55.7463940   3.1203710  48.4817640  55.3728840   1.9396850
  46.0675770  51.8402030   8.6404440  46.7047990  52.4536170   9.0063630
  46.2150660  51.8762690   7.6953670  31.9255430  51.8016340   8.0260120
  31.5770250  52.2580160   8.7918300  31.5943130  50.9073470   8.1082550
  33.5319800  64.9735940  12.1913310  33.4889430  64.6028850  13.0727770
  33.6630810  65.9113510  12.3315130  37.2325830  66.5295530   7.7923030
  36.9917190  66.7970090   6.9053550  38.1728470  66.7001260   7.8473890
  39.4380250  52.9928220  11.5479540  39.3769140  53.5850050  12.2974950
  40.3780630  52.8854180  11.4029800  42.0754810  52.6498280  11.1871830
  42.6895220  52.9677570  10.5252910  42.6204370  52.1646870  11.8067690
  48.4929990  68.5489910   8.5933670  47.9988270  68.9458780   7.8760800
  47.8843280  67.9239120   8.9870950  32.5976070  51.3292540  11.3010890
  33.1459060  51.1480590  10.5377000  32.6631380  50.5386650  11.8367200
  33.3707830  67.9198190   9.3111090  32.7768150  67.7882890  10.0501130
  33.3631670  67.0836330   8.8453190  42.8162850  51.2130420   7.5141120
  41.9422690  51.5465530   7.3114050  42.7073600  50.7403600   8.3392990
  43.7234830  53.4201290   8.8982840  43.3948190  52.6053050   8.5184570
  44.6717130  53.3771100   8.7748530  46.1769440  69.1913330   5.8720410
  45.7172410  69.9429140   5.4978430  45.5481900  68.4719800   5.8135210
  33.0020060  65.2856570   8.2619130  32.2754120  64.6661860   8.1945080
  33.0629210  65.6797180   7.3917210  36.6065160  67.5001570   5.0468540
  37.1230180  66.8888930   4.5216800  37.2562540  68.0030350   5.5379550
  39.3460660  68.3910060   5.8737520  39.6338470  68.1364360   4.9970530
  39.8583880  67.8387420   6.4643090  40.5637670  52.1300260   6.4534030
  39.7809460  52.6045760   6.7330790  40.2700600  51.2255090   6.3447210
  45.1158740  52.8323360   4.4983120  45.5566830  52.7768460   3.6504720
  44.8466330  53.7481370   4.5693300  46.9797310  52.4638600   2.5091940
  46.9185710  51.5199820   2.3622960  47.7589340  52.5718690   3.0545400
  42.9516870  51.2129460   3.2033130  43.5546240  51.7849670   3.6781650
  42.2109860  51.7768900   2.9807030  39.4133020  69.3126160  13.2405720
  40.3400330  69.0770430  13.2841680  39.3983450  70.1398160  12.7591750
  36.5996630  51.9770910  13.0047600  36.3180900  52.4804510  12.2408420
  36.9816330  51.1792660  12.6389730  43.2012090  51.3924490  13.5828070
  43.0877540  51.7119100  14.4779590  44.0181830  51.7937000  13.2865350
  45.9810580  68.5396020  13.0646760  46.7735900  68.0445250  12.8572720
  46.2743730  69.2186160  13.6722370  42.1070240  40.6373470  77.8180260
  42.0264290  39.7228080  77.5471970  41.6934660  41.1340540  77.1119970
  40.2388280  42.4152490  79.6989530  39.4630380  41.9352930  79.9888100
  40.8901210  41.7358140  79.5245690  34.2554110  42.7272300  80.5765290
  33.4238990  42.4721010  80.9761800  34.8635090  42.7983070  81.3123210
  44.2595710  46.8212680  78.4788660  43.7977240  46.0499920  78.8075830
  45.0721260  46.8478750  78.9841110  34.2355370  46.7612390  80.7723310
  34.5383410  45.8710130  80.5933530  34.9798960  47.3182610  80.5445560
  32.6646060  37.6874190  74.3607680  31.7762760  38.0290160  74.2587560
  32.9487250  37.4874510  73.4688510  30.6279070  40.2879840  80.2447380
  31.1995180  39.5202040  80.2451020  30.6280610  40.5868600  79.3353990
  40.4859020  49.1070690  78.0992650  39.8670460  49.5628190  77.5287090
  41.3410800  49.2622150  77.6982350  39.6797270  45.0909680  79.7059690
  39.6105550  44.1499620  79.5448820  40.4417130  45.1811090  80.2782260
  40.7102440  37.8980060  79.9328620  41.0867260  37.0251940  79.8202290
  40.6121950  38.2338760  79.0419060  34.8407450  36.2705690  75.3946060
  34.9474200  37.1709420  75.7014820  33.9299810  36.2223660  75.1040710
  44.4926560  35.3930500  76.8656960  45.3136180  34.9027070  76.9082440
  44.5260640  35.9828160  77.6188800  32.4890610  38.1924700  80.6398650
  33.1700720  38.4563070  81.2586050  32.1738660  37.3525570  80.9736660
  36.6815180  39.2392060  79.7271240  37.1893400  39.7373030  80.3676260
  37.2128420  38.4627260  79.5510600  41.3522370  43.9909930  75.4924560
  40.7339640  44.4559380  74.9287280  41.8645620  44.6837410  75.9094070
  44.7288040  37.3330880  79.6384500  44.0243610  37.6215770  80.2187610
  45.0900200  38.1430990  79.2784060  30.7205570  44.6766460  72.8664190
  30.3433550  45.1653560  72.1349090  30.9778640  45.3491740  73.4970720
  46.3450820  46.9506010  81.9011980  45.6614340  47.6205120  81.8928650
  46.8845110  47.1486660  81.1356840  47.7974960  36.7785670  80.0293710
  46.8499870  36.8124650  80.1609140  48.1224950  37.5924620  80.4143070
  38.3294500  33.0782850  78.3249700  38.6369480  32.5229740  77.6085200
  37.3995200  33.2127310  78.1422690  43.8809560  48.7950140  80.6157160
  43.8936720  48.3912430  79.7479420  43.3284780  49.5697430  80.5118590
  45.1754980  45.5166360  75.7047330  45.0651310  44.5740690  75.8296750
  45.1723230  45.8782000  76.5910090  40.7175260  41.1431680  75.0609820
  39.7904540  41.0769060  75.2898290  40.8700080  42.0811810  74.9465060
  47.2257100  42.0967200  82.0356010  46.3975730  42.1660290  81.5606140
  47.8207580  42.6821510  81.5671840  44.7472550  42.7051980  75.5645070
  44.1284970  42.3671530  74.9171370  44.7297000  42.0611740  76.2724260
  36.3231900  41.6696420  77.8429550  35.9188900  40.9573670  77.3475450
  36.4095020  41.3249660  78.7317590  36.7913600  45.3563980  80.0068760
  36.4941890  44.7509450  79.3276540  37.7413420  45.3941290  79.8958120
  42.9237250  41.9438790  72.5717820  43.3630530  41.1061220  72.4255640
  43.6365670  42.5768190  72.6581960  41.0332630  46.8834860  76.5399060
  41.4728540  47.6259190  76.1254450  40.9719520  47.1261430  77.4638020
  46.5054390  33.1981600  70.8858860  46.1927050  33.2908430  71.7857930
  47.2666860  33.7762630  70.8356290  33.0236530  40.5641400  75.3436200
  32.9034130  41.2903490  74.7317470  32.7137420  39.7944310  74.8664110
  30.6621900  43.7356540  81.1504840  30.7402320  43.8705310  80.2060560
  31.2763580  43.0272430  81.3432960  31.9069530  45.4356730  77.5611020
  31.4997610  45.5771320  76.7064620  32.7982540  45.1516890  77.3582230
  43.7002810  49.8703980  73.8962070  43.5403950  49.5806920  74.7943900
  43.5349520  49.0944110  73.3607300  36.1791190  49.6502510  75.6733690
  36.0033670  48.7338050  75.4601490  35.3246930  50.0089800  75.9131490
  43.4028940  47.3791540  72.4560070  42.7094100  47.3768830  71.7962350
  44.1451800  46.9550860  72.0254240  42.9678870  49.0054250  76.5308560
  43.4235820  48.2243630  76.8447180  43.3071390  49.7161070  77.0749740
  35.4900190  33.9076470  78.7259870  35.0468340  34.6886010  78.3944390
  36.0485180  34.2306360  79.4330810  38.6059010  33.5287170  73.6065700
  37.9813190  33.5247040  74.3319010  38.5189130  32.6618130  73.2101670
  37.5276090  34.4523800  80.5849470  37.8248420  35.3586630  80.5041490
  38.0761650  33.9642580  79.9709040  35.2814410  39.0310040  76.4541120
  35.0555330  38.8147210  77.3587740  34.5006940  39.4638500  76.1087090
  42.5112170  39.0373410  75.0531770  41.9121060  39.7609210  74.8695390
  43.0591780  38.9750190  74.2708220  41.1177040  37.6736950  77.0835050
  41.5106610  37.9909150  76.2703740  41.4793890  36.7948830  77.1979570
  30.1541210  34.2637750  79.3065250  29.8654260  34.8340610  80.0190230
  30.8986970  33.7842200  79.6696480  30.3411440  38.2057870  70.5167970
  30.2586110  39.1488630  70.6582960  29.9894500  38.0632780  69.6380320
  41.7032180  40.2642700  81.1785830  40.9713300  40.7729510  81.5275930
  41.3056520  39.4472680  80.8774610  38.1409570  36.9396900  79.5838320
  38.1445630  36.4986850  78.7342860  39.0360690  37.2614230  79.6910140
  33.9911950  36.8223390  78.5432530  33.6512000  37.2998620  79.2999580
  33.2289270  36.3688510  78.1833630  42.1658090  35.7176380  80.5908770
  42.1830830  36.1685030  81.4350620  41.9173670  34.8182020  80.8042210
  31.3058030  35.7442370  77.4597200  31.0204950  35.3798040  78.2975820
  31.2436890  35.0122830  76.8460340  34.7598700  44.2468310  74.2454790
  33.9860960  43.7065930  74.0853510  35.4893330  43.7274920  73.9072550
  45.5186680  43.2433670  80.0381180  46.2385800  43.7388960  79.6477290
  45.3168500  42.5651560  79.3935050  40.9796620  34.6371630  74.1810570
  40.1661230  34.1384800  74.1055880  40.7858570  35.4769880  73.7646920
  43.6945010  39.0091280  72.4772730  44.5824630  39.3208510  72.3024070
  43.6650100  38.1363530  72.0853310  34.8036100  43.9148690  77.8833600
  35.3214770  43.1116950  77.8290490  34.3520120  43.8527830  78.7250430
  39.6905600  45.1814970  73.1560900  40.0321300  45.9257200  72.6604220
  38.8618310  45.4946090  73.5185730  45.9659280  40.3203120  71.9452590
  45.8823000  40.7517340  71.0949030  46.6853470  40.7801470  72.3779410
  46.9946530  47.1745380  74.6734720  46.3522690  46.5201000  74.9478440
  46.6077190  47.5800470  73.8975390  42.5733010  44.5030810  78.5206410
  42.9256830  43.9058940  77.8607780  41.6895340  44.1775040  78.6914660
  38.6596290  45.2628500  75.9276820  39.3467420  45.8097710  76.3084410
  37.8728710  45.8069230  75.9626430  30.7988690  40.8801320  71.4193900
  31.6683540  41.1626120  71.7029820  30.3079010  41.6937190  71.3042710
  37.9623500  42.2674530  75.5402180  38.4186280  43.0779780  75.7662370
  37.6111710  41.9497670  76.3720670  33.8635280  32.6112180  76.0124700
  33.7349910  32.6030080  76.9609620  33.0397300  32.9495270  75.6615710
  41.5388190  45.7813220  81.4871930  42.1810420  45.0806380  81.6004100
  42.0637540  46.5611660  81.3068820  45.3843910  46.0661840  71.2111070
  45.1581490  45.3492280  71.8035710  44.9940110  45.8174280  70.3732820
  31.1659940  50.0928700  71.9855530  31.5257580  50.6918040  71.3312800
  31.0252280  50.6388590  72.7590560  44.9660160  43.9833780  72.8725230
  44.6781860  44.4446470  73.6603110  45.7612330  43.5231550  73.1409450
  37.1828560  47.4759900  72.8029200  37.1738660  48.2089590  72.1873710
  36.2626920  47.2291480  72.8956160  32.7835200  42.6974790  73.5475960
  32.1763150  43.4373690  73.5571260  33.2584550  42.7874150  72.7214160
  45.7230020  35.8182550  74.0320410  45.0943180  35.9228220  73.3178640
  45.2281940  36.0379330  74.8214290  40.1688160  47.5388140  71.4654390
  40.2700140  47.3352130  70.5356370  39.2689900  47.2846420  71.6702170
  37.6914050  38.0968500  75.4478290  36.9830200  38.5654840  75.8891900
  37.9758530  37.4390510  76.0823480  41.7229480  34.8219160  76.8874080
  41.5997260  34.8405290  75.9383590  42.6714040  34.8698100  77.0072480
  38.8106270  50.0574460  76.1602060  39.0647770  50.0195850  75.2381430
  37.8618750  49.9307790  76.1530310  44.8158850  40.9766340  77.7360570
  43.8748990  40.9916570  77.9108260  45.1302920  40.1902300  78.1820870
  34.7940490  42.6585940  71.2964530  35.5603760  42.5467300  71.8589960
  34.8715180  41.9623910  70.6441300  33.4887250  40.0911010  71.9797420
  33.5690840  39.1438520  72.0914820  34.3807000  40.4217890  72.0858080
  46.8184430  48.1475190  79.4114830  46.9431850  48.9706360  79.8838640
  47.6849990  47.9365920  79.0638980  34.2901960  50.2406400  79.0831960
  35.0264440  49.6921860  79.3540530  34.6742880  51.1062410  78.9437950
  31.1747440  46.3079970  74.9573470  30.2487220  46.5501110  74.9478880
  31.6403870  47.1354230  74.8358220  37.4004270  49.4136710  70.9057530
  38.1932880  49.7025540  70.4539320  36.8808620  48.9828880  70.2270010
  46.4534440  48.6406840  72.3294270  46.1675950  48.2271980  71.5148450
  46.2553990  49.5694550  72.2094790  37.9181670  44.6340120  70.7699880
  37.8132310  44.0192470  71.4961260  37.7505890  44.1106010  69.9862890
  41.1584400  43.6960150  71.3741870  40.6094500  44.1429450  72.0184610
  41.7803660  43.1909400  71.8979540  36.8259520  42.6551070  73.2707170
  37.2475940  42.4890940  74.1138560  36.9510360  41.8451300  72.7762310
  39.3387160  41.6788680  70.5184270  39.8592820  40.9637700  70.1525420
  39.9855560  42.3174550  70.8184780  43.2006730  33.5392530  72.7452210
  43.4809020  32.6960430  73.1011630  42.4272460  33.7715640  73.2590960
  39.9035190  49.7600290  72.8086010  40.7985980  50.0985260  72.8304770
  39.9352820  49.0379700  72.1810290  33.5431350  45.1327340  71.0373010
  33.9806220  45.6757010  71.6930590  34.0279080  44.3074290  71.0469350
  30.7577150  47.9216370  78.4893270  31.0880160  47.0537430  78.2571910
  31.1868150  48.1274890  79.3198230  35.3539070  46.2525380  76.1495240
  35.0534610  46.1290350  77.0499150  35.2476560  45.3933970  75.7410970
  48.1230990  46.0321780  70.8521920  47.2923950  46.0998430  71.3229150
  48.3002820  46.9225900  70.5488780  47.5787450  42.7769260  73.3556120
  48.3406360  43.3465910  73.4615810  47.5941820  42.2096460  74.1264430
  31.0791790  41.3007190  77.5863780  30.4240630  41.0318830  76.9423480
  31.9169740  41.1911670  77.1365760  48.5847420  43.6319360  78.1998050
  48.9556250  42.8486680  77.7934020  49.2249350  44.3208460  78.0215350
  47.6306620  43.0703630  70.5128640  47.9055460  43.9782510  70.3847860
  47.4417360  43.0066160  71.4490630  44.0282230  36.0948480  71.8082270
  44.4467110  35.9079460  70.9678930  43.7218290  35.2427530  72.1185200
  47.5271960  41.0072620  75.5058070  47.1515560  40.2400550  75.0739360
  46.7975080  41.3895320  75.9933000  30.2929870  38.5106120  73.5289110
  29.3893950  38.7736320  73.3540770  30.7770490  38.7817290  72.7489070
  46.8022920  39.2330110  78.8065310  47.3260400  38.7392760  78.1755480
  47.3882340  39.3680470  79.5512880  46.2922890  38.4903460  74.7457720
  46.7882010  38.2574330  75.5306600  46.0938960  37.6515300  74.3295360
  32.1723430  32.8717180  80.3808760  32.8199620  32.3214560  79.9403920
  32.5925270  33.1260330  81.2024570  47.7210050  37.1264410  77.2795400
  47.6109330  36.9720450  78.2177670  48.4817640  36.5985350  77.0370810
  48.6100320  34.9572330  70.5201540  49.5349630  34.8253510  70.3119830
  48.5876110  35.0365150  71.4737990  48.6838810  35.7282990  73.1458250
  47.8890310  35.6628110  73.6751160  48.8882090  36.6633630  73.1343600
  45.6257230  49.7674540  77.1396640  46.2216300  49.4459110  76.4631060
  45.8835380  49.2946360  77.9309910  46.1769440  50.4169840  80.9694370
  45.7172410  51.1685650  80.5952390  45.5481900  49.6976310  80.9109170
  36.6065160  48.7258080  80.1442500  37.1230180  48.1145440  79.6190760
  37.2562540  49.2286860  80.6353510  39.3460660  49.6166570  80.9711480
  39.6338470  49.3620870  80.0944490  39.8583880  49.0643930  81.5617050
  40.5637670  33.3556770  81.5507990  39.7809460  33.8302270  81.8304750
  40.2700600  32.4511600  81.4421170  45.1158740  34.0579870  79.5957080
  45.5566830  34.0024970  78.7478680  44.8466330  34.9737880  79.6667260
  46.9797310  33.6895110  77.6065900  46.9185710  32.7456330  77.4596920
  47.7589340  33.7975200  78.1519360  31.2850060  49.8287470  76.5689850
  31.1172100  49.1958150  77.2671740  30.4184570  50.0346870  76.2184040
  31.9078080  33.6604250  74.0721710  32.6657440  33.7733130  73.4985740
  31.4455250  34.4973450  74.0265140  38.4491890  35.7743520  77.0624020
  37.6366400  35.4000410  76.7219900  38.9533530  35.0188600  77.3645210
  42.9516870  32.4385970  78.3007090  43.5546240  33.0106180  78.7755610
  42.2109860  33.0025410  78.0780990  46.0951470  32.8407530  73.5747370
  46.2902100  33.7390980  73.8414800  45.3081340  32.6094610  74.0680320
  32.8912760  48.5220700  74.0139990  32.3660380  48.9028730  73.3101950
  32.8157340  49.1471470  74.7349700  34.2803230  34.1868300  72.6123680
  34.8095990  33.3998100  72.4831630  34.9131550  34.8659490  72.8459210
  36.4741070  33.9243440  75.6669070  35.8443810  33.2230750  75.8339200
  35.9346210  34.6847570  75.4502230  47.6478080  50.0808240  75.3353930
  47.8230270  49.3945980  74.6914850  46.9499650  50.6055290  74.9430600
  35.4905730  50.4703080  72.8889240  36.2224550  50.1862360  72.3413130
  35.7499400  50.2316360  73.7788620  34.6520520  46.5867810  72.8935570
  34.0229400  47.0552910  73.4421400  34.7668350  45.7417030  73.3281760
  35.8832030  45.0945670  67.8833070  34.9860560  45.3185640  68.1306470
  35.9084900  45.2180610  66.9344470  34.7103250  41.9658990  66.4590440
  34.5711020  42.8381790  66.8277840  33.8284610  41.6231800  66.3138380
  36.5083600  47.9080690  68.6675590  36.4799030  48.3123640  67.8004020
  36.3448570  46.9791050  68.5047190  48.4598420  48.6907790  69.9639760
  48.9358140  49.1690680  70.6428840  49.0805580  48.6225280  69.2385260
  47.7155680  37.9353100  68.0889510  47.0999950  38.4432770  67.5604970
  47.3952100  37.0351430  68.0315450  45.5928840  33.1308560  67.6551660
  45.9174610  32.3998220  68.1809640  45.6285350  32.8122200  66.7532650
  40.9005480  43.3142730  67.1506690  40.8342790  42.3938400  66.8964280
  40.2710620  43.4118170  67.8651330  32.2880640  40.8810060  66.0215810
  31.9295580  41.5463910  66.6089150  31.9935200  40.0493610  66.3928430
  35.4893760  41.3394300  68.9055360  35.1893900  41.4851480  68.0083180
  36.2605000  40.7799590  68.8128750  40.8322210  46.1363300  66.9010490
  40.8466750  45.2044260  66.6829400  40.1247310  46.2223060  67.5400260
  31.1501800  48.3583560  67.6854440  31.2592920  47.4178300  67.5449830
  30.4982360  48.6238310  67.0368170  39.1414390  46.6299450  69.0852560
  38.8211260  45.9108690  69.6298250  38.4672750  47.3054520  69.1588620
  33.2960240  49.4252470  69.4974050  34.0972970  49.7464520  69.9109450
  32.7812060  49.0648050  70.2193960  42.1324870  45.5332340  69.4449460
  41.5263030  45.5563940  68.7045210  41.8278980  44.8015380  69.9816710
  43.5625240  49.2612630  68.0558870  44.5146990  49.1770650  68.0059110
  43.4153460  49.9254340  68.7292660  31.0158050  41.9125930  68.4410100
  31.5197070  41.3333210  69.0126330  30.2765470  42.1966160  68.9786470
  38.0695990  43.3196920  67.9745620  37.3041660  43.8881920  67.8900290
  38.2511950  43.0273130  67.0813850  33.0481130  40.0555520  69.3360170
  33.0886470  39.7569390  70.2445400  33.9026630  40.4563130  69.1767690
  44.3587170  40.4413240  69.0715000  44.9407940  39.6865560  68.9835480
  44.5348940  40.9720680  68.2946480  36.4987650  49.3590570  66.1529510
  35.9608740  50.0836630  65.8338210  36.7521610  48.8820910  65.3626850
  39.3549860  50.5941780  66.4116160  39.2808560  51.4976920  66.7188530
  38.4528700  50.2753680  66.3838230  31.6683720  38.5968850  67.2582050
  30.7739770  38.5635610  67.5975760  32.2081270  38.7955640  68.0233300
  33.5319800  46.1992450  68.5143780  33.4889430  45.8285360  69.3958240
  33.6630810  47.1370020  68.6545600  39.4133020  50.5382670  69.5636190
  40.3400330  50.3026940  69.6072150  39.3983450  51.3654670  69.0822220
  45.9810580  49.7652530  69.3877230  46.7735900  49.2701760  69.1803190
  46.2743730  50.4442670  69.9952840  48.6100320  34.9572330  32.9714560
  49.5349630  34.8253510  32.7632850  48.5876110  35.0365150  33.9251010
  48.6838810  35.7282990  35.5971270  47.8890310  35.6628110  36.1264180
  48.8882090  36.6633630  35.5856620  45.1754980  45.5166360  19.3816860
  45.0651310  44.5740690  19.5066280  45.1723230  45.8782000  20.2679620
  40.7044340  37.4148680  15.7346510  39.7648010  37.5762640  15.8198970
  41.0227600  38.1334360  15.1882500  46.5054390  33.1981600  14.5628390
  46.1927050  33.2908430  15.4627460  47.2666860  33.7762630  14.5125820
  43.7002810  49.8703980  17.5731600  43.5403950  49.5806920  18.4713430
  43.5349520  49.0944110  17.0376830  43.4028940  47.3791540  16.1329600
  42.7094100  47.3768830  15.4731880  44.1451800  46.9550860  15.7023770
  42.9678870  49.0054250  20.2078090  43.4235820  48.2243630  20.5216710
  43.3071390  49.7161070  20.7519270  38.6059010  33.5287170  17.2835230
  37.9813190  33.5247040  18.0088540  38.5189130  32.6618130  16.8871200
  40.9796620  34.6371630  17.8580100  40.1661230  34.1384800  17.7825410
  40.7858570  35.4769880  17.4416450  43.6945010  39.0091280  16.1542260
  44.5824630  39.3208510  15.9793600  43.6650100  38.1363530  15.7622840
  45.9659280  40.3203120  15.6222120  45.8823000  40.7517340  14.7718560
  46.6853470  40.7801470  16.0548940  46.9946530  47.1745380  18.3504250
  46.3522690  46.5201000  18.6247970  46.6077190  47.5800470  17.5744920
  45.3843910  46.0661840  14.8880600  45.1581490  45.3492280  15.4805240
  44.9940110  45.8174280  14.0502350  44.9660160  43.9833780  16.5494760
  44.6781860  44.4446470  17.3372640  45.7612330  43.5231550  16.8178980
  45.7230020  35.8182550  17.7089940  45.0943180  35.9228220  16.9948170
  45.2281940  36.0379330  18.4983820  40.1688160  47.5388140  15.1423920
  40.2700140  47.3352130  14.2125900  39.2689900  47.2846420  15.3471700
  46.8184430  48.1475190  23.0884360  46.9431850  48.9706360  23.5608170
  47.6849990  47.9365920  22.7408510  37.4004270  49.4136710  14.5827060
  38.1932880  49.7025540  14.1308850  36.8808620  48.9828880  13.9039540
  46.4534440  48.6406840  16.0063800  46.1675950  48.2271980  15.1917980
  46.2553990  49.5694550  15.8864320  35.7218420  38.7284300  13.8934860
  35.5207480  37.8651660  14.2548200  35.5510470  38.6417660  12.9556460
  43.2006730  33.5392530  16.4221740  43.4809020  32.6960430  16.7781160
  42.4272460  33.7715640  16.9360490  34.5201220  35.8284920  13.8812740
  34.8227120  35.8352350  12.9731890  35.2595810  35.4782780  14.3780400
  37.7386150  34.7719540  14.8668940  37.3908150  34.0943530  14.2871390
  37.9398920  34.3109050  15.6812330  39.9035190  49.7600290  16.4855540
  40.7985980  50.0985260  16.5074300  39.9352820  49.0379700  15.8579820
  48.1230990  46.0321780  14.5291450  47.2923950  46.0998430  14.9998680
  48.3002820  46.9225900  14.2258310  47.6306620  43.0703630  14.1898170
  47.9055460  43.9782510  14.0617390  47.4417360  43.0066160  15.1260160
  44.0282230  36.0948480  15.4851800  44.4467110  35.9079460  14.6448460
  43.7218290  35.2427530  15.7954730  32.8357080  37.5671660  15.1153020
  33.5448780  37.1454880  14.6300300  32.1197020  37.6346890  14.4836370
  32.4831240  33.6210990  14.1555670  33.2059370  34.1619930  14.4736890
  32.7555760  33.3474410  13.2797210  48.6100320  34.9572330  14.1971070
  49.5349630  34.8253510  13.9889360  48.5876110  35.0365150  15.1507520
  48.6838810  35.7282990  16.8227780  47.8890310  35.6628110  17.3520690
  48.8882090  36.6633630  16.8113130  45.6257230  49.7674540  20.8166170
  46.2216300  49.4459110  20.1400590  45.8835380  49.2946360  21.6079440
  48.4929990  49.7746420  27.3677160  47.9988270  50.1715290  26.6504290
  47.8843280  49.1495630  27.7614440  46.1769440  50.4169840  24.6463900
  45.7172410  51.1685650  24.2721920  45.5481900  49.6976310  24.5878700
  46.0951470  32.8407530  17.2516900  46.2902100  33.7390980  17.5184330
  45.3081340  32.6094610  17.7449850  34.2803230  34.1868300  16.2893210
  34.8095990  33.3998100  16.1601160  34.9131550  34.8659490  16.5228740
  47.6478080  50.0808240  19.0123460  47.8230270  49.3945980  18.3684380
  46.9499650  50.6055290  18.6200130  42.1070240  40.6373470   2.7206300
  42.0264290  39.7228080   2.4498010  41.6934660  41.1340540   2.0146010
  40.2388280  42.4152490   4.6015570  39.4630380  41.9352930   4.8914140
  40.8901210  41.7358140   4.4271730  34.2554110  42.7272300   5.4791330
  33.4238990  42.4721010   5.8787840  34.8635090  42.7983070   6.2149250
  44.2595710  46.8212680   3.3814700  43.7977240  46.0499920   3.7101870
  45.0721260  46.8478750   3.8867150  34.2355370  46.7612390   5.6749350
  34.5383410  45.8710130   5.4959570  34.9798960  47.3182610   5.4471600
  30.6279070  40.2879840   5.1473420  31.1995180  39.5202040   5.1477060
  30.6280610  40.5868600   4.2380030  40.4859020  49.1070690   3.0018690
  39.8670460  49.5628190   2.4313130  41.3410800  49.2622150   2.6008390
  39.6797270  45.0909680   4.6085730  39.6105550  44.1499620   4.4474860
  40.4417130  45.1811090   5.1808300  31.8703940  35.6964200   6.9342350
  31.6906780  34.7989950   7.2145110  31.4684020  36.2436070   7.6089300
  40.7102440  37.8980060   4.8354660  41.0867260  37.0251940   4.7228330
  40.6121950  38.2338760   3.9445100  44.4926560  35.3930500   1.7683000
  45.3136180  34.9027070   1.8108480  44.5260640  35.9828160   2.5214840
  32.4890610  38.1924700   5.5424690  33.1700720  38.4563070   6.1612090
  32.1738660  37.3525570   5.8762700  36.6815180  39.2392060   4.6297280
  37.1893400  39.7373030   5.2702300  37.2128420  38.4627260   4.4536640
  48.7826110  37.4097250   8.3326630  48.0778280  37.7978960   7.8141740
  49.0484030  38.1047540   8.9347560  34.9651280  33.8790620   8.8960700
  34.9669720  34.3963010   8.0906600  34.1355590  33.4020800   8.8730630
  36.2154130  43.5185800   7.0734200  35.8823510  44.1454720   7.7155270
  36.3920810  44.0447680   6.2935870  44.7288040  37.3330880   4.5410540
  44.0243610  37.6215770   5.1213650  45.0900200  38.1430990   4.1810100
  34.6466610  35.5900580   6.9031150  34.9883420  36.4342630   6.6085020
  33.7082420  35.7384320   7.0196490  35.4273230  45.4866600   8.8883380
  36.0447230  46.1617680   8.6067830  34.5666350  45.8954580   8.7970880
  46.3450820  46.9506010   6.8038020  45.6614340  47.6205120   6.7954690
  46.8845110  47.1486660   6.0382880  47.7974960  36.7785670   4.9319750
  46.8499870  36.8124650   5.0635180  48.1224950  37.5924620   5.3169110
  38.3294500  33.0782850   3.2275740  38.6369480  32.5229740   2.5111240
  37.3995200  33.2127310   3.0448730  43.8809560  48.7950140   5.5183200
  43.8936720  48.3912430   4.6505460  43.3284780  49.5697430   5.4144630
  43.2795000  43.6979980   6.8465810  43.6963790  43.4840090   6.0119270
  44.0034820  43.9552770   7.4174430  47.2257100  42.0967200   6.9382050
  46.3975730  42.1660290   6.4632180  47.8207580  42.6821510   6.4697880
  44.1899110  38.8836520   7.8836920  43.7770290  39.7090230   8.1376910
  43.4575060  38.2981560   7.6913280  36.3231900  41.6696420   2.7455590
  35.9188900  40.9573670   2.2501490  36.4095020  41.3249660   3.6343630
  36.7913600  45.3563980   4.9094800  36.4941890  44.7509450   4.2302580
  37.7413420  45.3941290   4.7984160  35.0360520  38.4439630   6.5254630
  35.5875110  38.5534970   5.7507880  35.5504030  38.8177230   7.2409860
  44.8799210  48.9295850   8.5717900  44.4029770  49.7368040   8.3790510
  44.1961000  48.2774180   8.7244110  35.8832030  45.0945670  11.5602600
  34.9860560  45.3185640  11.8076000  35.9084900  45.2180610  10.6114000
  34.7103250  41.9658990  10.1359970  34.5711020  42.8381790  10.5047370
  33.8284610  41.6231800   9.9907910  36.5083600  47.9080690  12.3445120
  36.4799030  48.3123640  11.4773550  36.3448570  46.9791050  12.1816720
  48.4598420  48.6907790  13.6409290  48.9358140  49.1690680  14.3198370
  49.0805580  48.6225280  12.9154790  30.6621900  43.7356540   6.0530880
  30.7402320  43.8705310   5.1086600  31.2763580  43.0272430   6.2459000
  47.8631670  45.8820640  10.8009300  47.9894730  45.6432520   9.8826480
  47.9053050  45.0505180  11.2731380  41.7248410  49.5848640   9.3704110
  42.2393080  49.4956650  10.1726540  40.8817490  49.9308340   9.6632020
  47.7155680  37.9353100  11.7659040  47.0999950  38.4432770  11.2374500
  47.3952100  37.0351430  11.7084980  30.7181420  44.7770710   8.5925340
  30.8812460  44.3076070   7.7744710  31.1833870  44.2694270   9.2574180
  35.4900190  33.9076470   3.6285910  35.0468340  34.6886010   3.2970430
  36.0485180  34.2306360   4.3356850  39.7770000  36.7744990   9.2321230
  39.3149370  36.9828010  10.0441170  39.3748110  35.9604340   8.9291900
  44.7774510  37.9953940  10.3617890  43.9268100  37.6959690  10.6826960
  44.6176300  38.2395950   9.4501710  41.8724220  39.4955690  12.4616680
  42.1977630  38.6619440  12.1218910  42.6604550  40.0184210  12.6095010
  37.5276090  34.4523800   5.4875510  37.8248420  35.3586630   5.4067530
  38.0761650  33.9642580   4.8735080  32.8524160  36.3409290  10.1761210
  32.4587550  37.1884500  10.3833990  32.1642560  35.7035660  10.3669850
  39.4269210  36.4244260  13.2457950  38.7367530  36.2316460  13.8804040
  40.1701510  36.7078900  13.7782250  30.1541210  34.2637750   4.2091290
  29.8654260  34.8340610   4.9216270  30.8986970  33.7842200   4.5722520
  41.7032180  40.2642700   6.0811870  40.9713300  40.7729510   6.4301970
  41.3056520  39.4472680   5.7800650  38.1409570  36.9396900   4.4864360
  38.1445630  36.4986850   3.6368900  39.0360690  37.2614230   4.5936180
  33.9911950  36.8223390   3.4458570  33.6512000  37.2998620   4.2025620
  33.2289270  36.3688510   3.0859670  42.1658090  35.7176380   5.4934810
  42.1830830  36.1685030   6.3376660  41.9173670  34.8182020   5.7068250
  45.5928840  33.1308560  11.3321190  45.9174610  32.3998220  11.8579170
  45.6285350  32.8122200  10.4302180  32.2920400  44.1522140  10.7521150
  31.9075190  43.5115810  11.3504110  32.6032590  44.8558260  11.3215880
  38.4417540  40.9998680   6.2329770  38.8087670  40.5257250   6.9791110
  38.2522600  41.8740250   6.5738110  31.3058030  35.7442370   2.3623240
  31.0204950  35.3798040   3.2001860  31.2436890  35.0122830   1.7486380
  36.2316910  40.0407320   8.5513980  35.9273980  40.9199300   8.7764340
  37.1863370  40.1007110   8.5871420  45.5186680  43.2433670   4.9407220
  46.2385800  43.7388960   4.5503330  45.3168500  42.5651560   4.2961090
  40.9005480  43.3142730  10.8276220  40.8342790  42.3938400  10.5733810
  40.2710620  43.4118170  11.5420860  34.8036100  43.9148690   2.7859640
  35.3214770  43.1116950   2.7316530  34.3520120  43.8527830   3.6276470
  32.2880640  40.8810060   9.6985340  31.9295580  41.5463910  10.2858680
  31.9935200  40.0493610  10.0697960  40.8322210  46.1363300  10.5780020
  40.8466750  45.2044260  10.3598930  40.1247310  46.2223060  11.2169790
  47.0433420  42.7770640   9.9248600  46.3181610  43.3699420   9.7277990
  47.5708880  42.7694180   9.1261970  42.5733010  44.5030810   3.4232450
  42.9256830  43.9058940   2.7633820  41.6895340  44.1775040   3.5940700
  40.2656110  47.7780870   7.6720520  40.9098330  47.9840250   8.3493940
  40.6285550  47.0169270   7.2191370  41.5388190  45.7813220   6.3897970
  42.1810420  45.0806380   6.5030140  42.0637540  46.5611660   6.2094860
  43.3125810  46.5808120   9.5934030  43.6482050  47.1674810  10.2711950
  42.3926150  46.4500830   9.8231820  30.8629210  34.3703300  10.3757440
  30.1487730  34.5700220  10.9810050  31.2824250  33.5942870  10.7472240
  31.1501800  48.3583560  11.3623970  31.2592920  47.4178300  11.2219360
  30.4982360  48.6238310  10.7137700  39.1414390  46.6299450  12.7622090
  38.8211260  45.9108690  13.3067780  38.4672750  47.3054520  12.8358150
  42.3567990  36.8625610   8.1258890  42.7248810  36.0420820   8.4538460
  41.4966190  36.9227500   8.5414540  39.3169980  39.5165200   8.3496860
  39.8155230  39.9911020   9.0148710  39.4592930  38.5928720   8.5566890
  46.5236840  35.7333160   9.1925250  46.0210440  36.4738560   9.5319060
  47.3393500  36.1217160   8.8762040  44.8158850  40.9766340   2.6386610
  43.8748990  40.9916570   2.8134300  45.1302920  40.1902300   3.0846910
  46.8184430  48.1475190   4.3140870  46.9431850  48.9706360   4.7864680
  47.6849990  47.9365920   3.9665020  34.2901960  50.2406400   3.9858000
  35.0264440  49.6921860   4.2566570  34.6742880  51.1062410   3.8463990
  33.2960240  49.4252470  13.1743580  34.0972970  49.7464520  13.5878980
  32.7812060  49.0648050  13.8963490  42.1324870  45.5332340  13.1218990
  41.5263030  45.5563940  12.3814740  41.8278980  44.8015380  13.6586240
  43.5625240  49.2612630  11.7328400  44.5146990  49.1770650  11.6828640
  43.4153460  49.9254340  12.4062190  45.2119340  45.0502250  12.2090170
  45.9528810  45.3878010  11.7057630  44.4492020  45.2194310  11.6559940
  33.0481130  40.0555520  13.0129700  33.0886470  39.7569390  13.9214930
  33.9026630  40.4563130  12.8537220  34.9886940  38.6347620  10.9804190
  34.4583400  38.1438570  10.3527530  35.6575010  39.0631820  10.4462120
  43.8865000  43.1017080  10.7445380  44.3006020  43.2562160  11.5935800
  42.9516000  43.2272300  10.9071160  44.3587170  40.4413240  12.7484530
  44.9407940  39.6865560  12.6605010  44.5348940  40.9720680  11.9716010
  35.4759240  35.6009990  11.0601480  35.3816110  34.9830740  10.3352350
  34.8956630  36.3276280  10.8331390  38.2420680  34.1583230   8.0928870
  37.7937980  34.1807490   7.2474420  37.6085880  33.7602250   8.6899170
  38.6480230  43.0537560   8.7141310  39.0668340  43.8970290   8.5417550
  37.7288860  43.1909600   8.4848090  40.9844130  40.7853740  10.0979150
  41.1040340  40.1894880  10.8373990  41.8438130  40.8223430   9.6780450
  43.3232030  41.3390930   8.6741660  42.7967250  41.8633550   8.0706800
  43.6663370  41.9718320   9.3051390  36.4987650  49.3590570   9.8299040
  35.9608740  50.0836630   9.5107740  36.7521610  48.8820910   9.0396380
  37.7512900  37.3275090  11.3554970  38.3412590  37.0190940  12.0432790
  36.9333140  36.8554840  11.5114870  42.5706330  36.9440900  11.5887990
  41.8821850  36.2822440  11.5237980  43.2912350  36.4979170  12.0336450
  39.3549860  50.5941780  10.0885690  39.2808560  51.4976920  10.3958060
  38.4528700  50.2753680  10.0607760  30.7577150  47.9216370   3.3919310
  31.0880160  47.0537430   3.1597950  31.1868150  48.1274890   4.2224270
  31.2467360  48.7886960   6.1300940  30.8098350  48.9687760   6.9625090
  31.8145040  49.5461580   5.9882660  46.8829540  48.2903960  10.4178250
  46.2831530  48.3496520   9.6742170  47.0123440  47.3508940  10.5475100
  31.0791790  41.3007190   2.4889820  30.4240630  41.0318830   1.8449520
  31.9169740  41.1911670   2.0391800  48.5847420  43.6319360   3.1024090
  48.9556250  42.8486680   2.6960060  49.2249350  44.3208460   2.9241390
  45.5681180  45.0155940   8.5154410  44.7541020  45.4453100   8.7780200
  45.9755380  45.6274350   7.9023460  32.1167720  41.6859760   7.0293160
  32.4840760  41.5987160   7.9089180  31.5478540  40.9226310   6.9300020
  46.9171580  40.1544140  10.0423630  46.6857670  39.9256890   9.1421580
  47.1776130  41.0743690   9.9968520  31.6683720  38.5968850  10.9351580
  30.7739770  38.5635610  11.2745290  32.2081270  38.7955640  11.7002830
  45.3559650  35.3800570  12.8203330  46.2329830  35.3883970  13.2037330
  45.3680490  34.6431410  12.2095680  46.8022920  39.2330110   3.7091350
  47.3260400  38.7392760   3.0781520  47.3882340  39.3680470   4.4538920
  46.9812640  39.3169980   7.2310900  46.0315350  39.2833520   7.3455890
  47.1625650  40.2270090   6.9960670  32.1723430  32.8717180   5.2834800
  32.8199620  32.3214560   4.8429960  32.5925270  33.1260330   6.1050610
  47.7210050  37.1264410   2.1821440  47.6109330  36.9720450   3.1203710
  48.4817640  36.5985350   1.9396850  46.0675770  33.0658540   8.6404440
  46.7047990  33.6792680   9.0063630  46.2150660  33.1019200   7.6953670
  31.9255430  33.0272850   8.0260120  31.5770250  33.4836670   8.7918300
  31.5943130  32.1329980   8.1082550  33.5319800  46.1992450  12.1913310
  33.4889430  45.8285360  13.0727770  33.6630810  47.1370020  12.3315130
  37.2325830  47.7552040   7.7923030  36.9917190  48.0226600   6.9053550
  38.1728470  47.9257770   7.8473890  39.4380250  34.2184730  11.5479540
  39.3769140  34.8106560  12.2974950  40.3780630  34.1110690  11.4029800
  42.0754810  33.8754790  11.1871830  42.6895220  34.1934080  10.5252910
  42.6204370  33.3903380  11.8067690  48.4929990  49.7746420   8.5933670
  47.9988270  50.1715290   7.8760800  47.8843280  49.1495630   8.9870950
  32.5976070  32.5549050  11.3010890  33.1459060  32.3737100  10.5377000
  32.6631380  31.7643160  11.8367200  33.3707830  49.1454700   9.3111090
  32.7768150  49.0139400  10.0501130  33.3631670  48.3092840   8.8453190
  42.8162850  32.4386930   7.5141120  41.9422690  32.7722040   7.3114050
  42.7073600  31.9660110   8.3392990  43.7234830  34.6457800   8.8982840
  43.3948190  33.8309560   8.5184570  44.6717130  34.6027610   8.7748530
  46.1769440  50.4169840   5.8720410  45.7172410  51.1685650   5.4978430
  45.5481900  49.6976310   5.8135210  33.0020060  46.5113080   8.2619130
  32.2754120  45.8918370   8.1945080  33.0629210  46.9053690   7.3917210
  36.6065160  48.7258080   5.0468540  37.1230180  48.1145440   4.5216800
  37.2562540  49.2286860   5.5379550  39.3460660  49.6166570   5.8737520
  39.6338470  49.3620870   4.9970530  39.8583880  49.0643930   6.4643090
  40.5637670  33.3556770   6.4534030  39.7809460  33.8302270   6.7330790
  40.2700600  32.4511600   6.3447210  45.1158740  34.0579870   4.4983120
  45.5566830  34.0024970   3.6504720  44.8466330  34.9737880   4.5693300
  46.9797310  33.6895110   2.5091940  46.9185710  32.7456330   2.3622960
  47.7589340  33.7975200   3.0545400  42.9516870  32.4385970   3.2033130
  43.5546240  33.0106180   3.6781650  42.2109860  33.0025410   2.9807030
  39.4133020  50.5382670  13.2405720  40.3400330  50.3026940  13.2841680
  39.3983450  51.3654670  12.7591750  36.5996630  33.2027420  13.0047600
  36.3180900  33.7061020  12.2408420  36.9816330  32.4049170  12.6389730
  43.2012090  32.6181000  13.5828070  43.0877540  32.9375610  14.4779590
  44.0181830  33.0193510  13.2865350  45.9810580  49.7652530  13.0646760
  46.7735900  49.2701760  12.8572720  46.2743730  50.4442670  13.6722370
  42.1070240  21.8629980  77.8180260  42.0264290  20.9484590  77.5471970
  41.6934660  22.3597050  77.1119970  40.2388280  23.6409000  79.6989530
  39.4630380  23.1609440  79.9888100  40.8901210  22.9614650  79.5245690
  34.2554110  23.9528810  80.5765290  33.4238990  23.6977520  80.9761800
  34.8635090  24.0239580  81.3123210  44.2595710  28.0469190  78.4788660
  43.7977240  27.2756430  78.8075830  45.0721260  28.0735260  78.9841110
  34.2355370  27.9868900  80.7723310  34.5383410  27.0966640  80.5933530
  34.9798960  28.5439120  80.5445560  32.6646060  18.9130700  74.3607680
  31.7762760  19.2546670  74.2587560  32.9487250  18.7131020  73.4688510
  30.6279070  21.5136350  80.2447380  31.1995180  20.7458550  80.2451020
  30.6280610  21.8125110  79.3353990  40.4859020  30.3327200  78.0992650
  39.8670460  30.7884700  77.5287090  41.3410800  30.4878660  77.6982350
  39.6797270  26.3166190  79.7059690  39.6105550  25.3756130  79.5448820
  40.4417130  26.4067600  80.2782260  40.7102440  19.1236570  79.9328620
  41.0867260  18.2508450  79.8202290  40.6121950  19.4595270  79.0419060
  34.8407450  17.4962200  75.3946060  34.9474200  18.3965930  75.7014820
  33.9299810  17.4480170  75.1040710  44.4926560  16.6187010  76.8656960
  45.3136180  16.1283580  76.9082440  44.5260640  17.2084670  77.6188800
  32.4890610  19.4181210  80.6398650  33.1700720  19.6819580  81.2586050
  32.1738660  18.5782080  80.9736660  36.6815180  20.4648570  79.7271240
  37.1893400  20.9629540  80.3676260  37.2128420  19.6883770  79.5510600
  41.3522370  25.2166440  75.4924560  40.7339640  25.6815890  74.9287280
  41.8645620  25.9093920  75.9094070  44.7288040  18.5587390  79.6384500
  44.0243610  18.8472280  80.2187610  45.0900200  19.3687500  79.2784060
  30.7205570  25.9022970  72.8664190  30.3433550  26.3910070  72.1349090
  30.9778640  26.5748250  73.4970720  46.3450820  28.1762520  81.9011980
  45.6614340  28.8461630  81.8928650  46.8845110  28.3743170  81.1356840
  47.7974960  18.0042180  80.0293710  46.8499870  18.0381160  80.1609140
  48.1224950  18.8181130  80.4143070  38.3294500  14.3039360  78.3249700
  38.6369480  13.7486250  77.6085200  37.3995200  14.4383820  78.1422690
  43.8809560  30.0206650  80.6157160  43.8936720  29.6168940  79.7479420
  43.3284780  30.7953940  80.5118590  45.1754980  26.7422870  75.7047330
  45.0651310  25.7997200  75.8296750  45.1723230  27.1038510  76.5910090
  40.7175260  22.3688190  75.0609820  39.7904540  22.3025570  75.2898290
  40.8700080  23.3068320  74.9465060  40.7044340  18.6405190  72.0576980
  39.7648010  18.8019150  72.1429440  41.0227600  19.3590870  71.5112970
  47.2257100  23.3223710  82.0356010  46.3975730  23.3916800  81.5606140
  47.8207580  23.9078020  81.5671840  44.7472550  23.9308490  75.5645070
  44.1284970  23.5928040  74.9171370  44.7297000  23.2868250  76.2724260
  36.3231900  22.8952930  77.8429550  35.9188900  22.1830180  77.3475450
  36.4095020  22.5506170  78.7317590  36.7913600  26.5820490  80.0068760
  36.4941890  25.9765960  79.3276540  37.7413420  26.6197800  79.8958120
  42.9237250  23.1695300  72.5717820  43.3630530  22.3317730  72.4255640
  43.6365670  23.8024700  72.6581960  41.0332630  28.1091370  76.5399060
  41.4728540  28.8515700  76.1254450  40.9719520  28.3517940  77.4638020
  46.5054390  14.4238110  70.8858860  46.1927050  14.5164940  71.7857930
  47.2666860  15.0019140  70.8356290  33.0236530  21.7897910  75.3436200
  32.9034130  22.5160000  74.7317470  32.7137420  21.0200820  74.8664110
  30.6621900  24.9613050  81.1504840  30.7402320  25.0961820  80.2060560
  31.2763580  24.2528940  81.3432960  31.9069530  26.6613240  77.5611020
  31.4997610  26.8027830  76.7064620  32.7982540  26.3773400  77.3582230
  43.7002810  31.0960490  73.8962070  43.5403950  30.8063430  74.7943900
  43.5349520  30.3200620  73.3607300  36.1791190  30.8759020  75.6733690
  36.0033670  29.9594560  75.4601490  35.3246930  31.2346310  75.9131490
  43.4028940  28.6048050  72.4560070  42.7094100  28.6025340  71.7962350
  44.1451800  28.1807370  72.0254240  42.9678870  30.2310760  76.5308560
  43.4235820  29.4500140  76.8447180  43.3071390  30.9417580  77.0749740
  35.4900190  15.1332980  78.7259870  35.0468340  15.9142520  78.3944390
  36.0485180  15.4562870  79.4330810  38.6059010  14.7543680  73.6065700
  37.9813190  14.7503550  74.3319010  38.5189130  13.8874640  73.2101670
  37.5276090  15.6780310  80.5849470  37.8248420  16.5843140  80.5041490
  38.0761650  15.1899090  79.9709040  35.2814410  20.2566550  76.4541120
  35.0555330  20.0403720  77.3587740  34.5006940  20.6895010  76.1087090
  42.5112170  20.2629920  75.0531770  41.9121060  20.9865720  74.8695390
  43.0591780  20.2006700  74.2708220  41.1177040  18.8993460  77.0835050
  41.5106610  19.2165660  76.2703740  41.4793890  18.0205340  77.1979570
  30.1541210  15.4894260  79.3065250  29.8654260  16.0597120  80.0190230
  30.8986970  15.0098710  79.6696480  30.3411440  19.4314380  70.5167970
  30.2586110  20.3745140  70.6582960  29.9894500  19.2889290  69.6380320
  41.7032180  21.4899210  81.1785830  40.9713300  21.9986020  81.5275930
  41.3056520  20.6729190  80.8774610  38.1409570  18.1653410  79.5838320
  38.1445630  17.7243360  78.7342860  39.0360690  18.4870740  79.6910140
  33.9911950  18.0479900  78.5432530  33.6512000  18.5255130  79.2999580
  33.2289270  17.5945020  78.1833630  38.2029720  19.1665490  72.5745080
  38.3242540  19.1251970  73.5230900  37.8178230  20.0289640  72.4191810
  42.1658090  16.9432890  80.5908770  42.1830830  17.3941540  81.4350620
  41.9173670  16.0438530  80.8042210  37.2151220  21.4766630  71.9728380
  36.6468120  21.0284880  71.3464290  37.9240220  21.8359410  71.4393530
  31.3058030  16.9698880  77.4597200  31.0204950  16.6054550  78.2975820
  31.2436890  16.2379340  76.8460340  34.7598700  25.4724820  74.2454790
  33.9860960  24.9322440  74.0853510  35.4893330  24.9531430  73.9072550
  45.5186680  24.4690180  80.0381180  46.2385800  24.9645470  79.6477290
  45.3168500  23.7908070  79.3935050  40.9796620  15.8628140  74.1810570
  40.1661230  15.3641310  74.1055880  40.7858570  16.7026390  73.7646920
  43.6945010  20.2347790  72.4772730  44.5824630  20.5465020  72.3024070
  43.6650100  19.3620040  72.0853310  34.8036100  25.1405200  77.8833600
  35.3214770  24.3373460  77.8290490  34.3520120  25.0784340  78.7250430
  39.6905600  26.4071480  73.1560900  40.0321300  27.1513710  72.6604220
  38.8618310  26.7202600  73.5185730  45.9659280  21.5459630  71.9452590
  45.8823000  21.9773850  71.0949030  46.6853470  22.0057980  72.3779410
  46.9946530  28.4001890  74.6734720  46.3522690  27.7457510  74.9478440
  46.6077190  28.8056980  73.8975390  42.5733010  25.7287320  78.5206410
  42.9256830  25.1315450  77.8607780  41.6895340  25.4031550  78.6914660
  38.6596290  26.4885010  75.9276820  39.3467420  27.0354220  76.3084410
  37.8728710  27.0325740  75.9626430  30.7988690  22.1057830  71.4193900
  31.6683540  22.3882630  71.7029820  30.3079010  22.9193700  71.3042710
  37.9623500  23.4931040  75.5402180  38.4186280  24.3036290  75.7662370
  37.6111710  23.1754180  76.3720670  33.8635280  13.8368690  76.0124700
  33.7349910  13.8286590  76.9609620  33.0397300  14.1751780  75.6615710
  41.5388190  27.0069730  81.4871930  42.1810420  26.3062890  81.6004100
  42.0637540  27.7868170  81.3068820  45.3843910  27.2918350  71.2111070
  45.1581490  26.5748790  71.8035710  44.9940110  27.0430790  70.3732820
  31.1659940  31.3185210  71.9855530  31.5257580  31.9174550  71.3312800
  31.0252280  31.8645100  72.7590560  44.9660160  25.2090290  72.8725230
  44.6781860  25.6702980  73.6603110  45.7612330  24.7488060  73.1409450
  37.1828560  28.7016410  72.8029200  37.1738660  29.4346100  72.1873710
  36.2626920  28.4547990  72.8956160  32.7835200  23.9231300  73.5475960
  32.1763150  24.6630200  73.5571260  33.2584550  24.0130660  72.7214160
  45.7230020  17.0439060  74.0320410  45.0943180  17.1484730  73.3178640
  45.2281940  17.2635840  74.8214290  40.1688160  28.7644650  71.4654390
  40.2700140  28.5608640  70.5356370  39.2689900  28.5102930  71.6702170
  37.6914050  19.3225010  75.4478290  36.9830200  19.7911350  75.8891900
  37.9758530  18.6647020  76.0823480  41.7229480  16.0475670  76.8874080
  41.5997260  16.0661800  75.9383590  42.6714040  16.0954610  77.0072480
  38.8106270  31.2830970  76.1602060  39.0647770  31.2452360  75.2381430
  37.8618750  31.1564300  76.1530310  35.8949070  17.6310090  72.8229000
  36.7439600  18.0680240  72.7569190  35.5280340  17.9430350  73.6501060
  44.8158850  22.2022850  77.7360570  43.8748990  22.2173080  77.9108260
  45.1302920  21.4158810  78.1820870  34.7940490  23.8842450  71.2964530
  35.5603760  23.7723810  71.8589960  34.8715180  23.1880420  70.6441300
  33.4887250  21.3167520  71.9797420  33.5690840  20.3695030  72.0914820
  34.3807000  21.6474400  72.0858080  46.8184430  29.3731700  79.4114830
  46.9431850  30.1962870  79.8838640  47.6849990  29.1622430  79.0638980
  34.2901960  31.4662910  79.0831960  35.0264440  30.9178370  79.3540530
  34.6742880  32.3318920  78.9437950  31.1747440  27.5336480  74.9573470
  30.2487220  27.7757620  74.9478880  31.6403870  28.3610740  74.8358220
  46.4534440  29.8663350  72.3294270  46.1675950  29.4528490  71.5148450
  46.2553990  30.7951060  72.2094790  37.9181670  25.8596630  70.7699880
  37.8132310  25.2448980  71.4961260  37.7505890  25.3362520  69.9862890
  41.1584400  24.9216660  71.3741870  40.6094500  25.3685960  72.0184610
  41.7803660  24.4165910  71.8979540  36.8259520  23.8807580  73.2707170
  37.2475940  23.7147450  74.1138560  36.9510360  23.0707810  72.7762310
  39.3387160  22.9045190  70.5184270  39.8592820  22.1894210  70.1525420
  39.9855560  23.5431060  70.8184780  35.7218420  19.9540810  70.2165330
  35.5207480  19.0908170  70.5778670  35.5510470  19.8674170  69.2786930
  43.2006730  14.7649040  72.7452210  43.4809020  13.9216940  73.1011630
  42.4272460  14.9972150  73.2590960  34.5201220  17.0541430  70.2043210
  34.8227120  17.0608860  69.2962360  35.2595810  16.7039290  70.7010870
  37.7386150  15.9976050  71.1899410  37.3908150  15.3200040  70.6101860
  37.9398920  15.5365560  72.0042800  39.9035190  30.9856800  72.8086010
  40.7985980  31.3241770  72.8304770  39.9352820  30.2636210  72.1810290
  33.5431350  26.3583850  71.0373010  33.9806220  26.9013520  71.6930590
  34.0279080  25.5330800  71.0469350  30.7577150  29.1472880  78.4893270
  31.0880160  28.2793940  78.2571910  31.1868150  29.3531400  79.3198230
  35.3539070  27.4781890  76.1495240  35.0534610  27.3546860  77.0499150
  35.2476560  26.6190480  75.7410970  48.1230990  27.2578290  70.8521920
  47.2923950  27.3254940  71.3229150  48.3002820  28.1482410  70.5488780
  47.5787450  24.0025770  73.3556120  48.3406360  24.5722420  73.4615810
  47.5941820  23.4352970  74.1264430  31.0791790  22.5263700  77.5863780
  30.4240630  22.2575340  76.9423480  31.9169740  22.4168180  77.1365760
  48.5847420  24.8575870  78.1998050  48.9556250  24.0743190  77.7934020
  49.2249350  25.5464970  78.0215350  47.6306620  24.2960140  70.5128640
  47.9055460  25.2039020  70.3847860  47.4417360  24.2322670  71.4490630
  44.0282230  17.3204990  71.8082270  44.4467110  17.1335970  70.9678930
  43.7218290  16.4684040  72.1185200  47.5271960  22.2329130  75.5058070
  47.1515560  21.4657060  75.0739360  46.7975080  22.6151830  75.9933000
  30.2929870  19.7362630  73.5289110  29.3893950  19.9992830  73.3540770
  30.7770490  20.0073800  72.7489070  46.8022920  20.4586620  78.8065310
  47.3260400  19.9649270  78.1755480  47.3882340  20.5936980  79.5512880
  32.8357080  18.7928170  71.4383490  33.5448780  18.3711390  70.9530770
  32.1197020  18.8603400  70.8066840  32.4831240  14.8467500  70.4786140
  33.2059370  15.3876440  70.7967360  32.7555760  14.5730920  69.6027680
  46.2922890  19.7159970  74.7457720  46.7882010  19.4830840  75.5306600
  46.0938960  18.8771810  74.3295360  32.1723430  14.0973690  80.3808760
  32.8199620  13.5471070  79.9403920  32.5925270  14.3516840  81.2024570
  47.7210050  18.3520920  77.2795400  47.6109330  18.1976960  78.2177670
  48.4817640  17.8241860  77.0370810  48.6100320  16.1828840  70.5201540
  49.5349630  16.0510020  70.3119830  48.5876110  16.2621660  71.4737990
  48.6838810  16.9539500  73.1458250  47.8890310  16.8884620  73.6751160
  48.8882090  17.8890140  73.1343600  45.6257230  30.9931050  77.1396640
  46.2216300  30.6715620  76.4631060  45.8835380  30.5202870  77.9309910
  46.1769440  31.6426350  80.9694370  45.7172410  32.3942160  80.5952390
  45.5481900  30.9232820  80.9109170  36.6065160  29.9514590  80.1442500
  37.1230180  29.3401950  79.6190760  37.2562540  30.4543370  80.6353510
  39.3460660  30.8423080  80.9711480  39.6338470  30.5877380  80.0944490
  39.8583880  30.2900440  81.5617050  40.5637670  14.5813280  81.5507990
  39.7809460  15.0558780  81.8304750  40.2700600  13.6768110  81.4421170
  45.1158740  15.2836380  79.5957080  45.5566830  15.2281480  78.7478680
  44.8466330  16.1994390  79.6667260  46.9797310  14.9151620  77.6065900
  46.9185710  13.9712840  77.4596920  47.7589340  15.0231710  78.1519360
  31.2850060  31.0543980  76.5689850  31.1172100  30.4214660  77.2671740
  30.4184570  31.2603380  76.2184040  31.9078080  14.8860760  74.0721710
  32.6657440  14.9989640  73.4985740  31.4455250  15.7229960  74.0265140
  38.4491890  17.0000030  77.0624020  37.6366400  16.6256920  76.7219900
  38.9533530  16.2445110  77.3645210  42.9516870  13.6642480  78.3007090
  43.5546240  14.2362690  78.7755610  42.2109860  14.2281920  78.0780990
  46.0951470  14.0664040  73.5747370  46.2902100  14.9647490  73.8414800
  45.3081340  13.8351120  74.0680320  32.8912760  29.7477210  74.0139990
  32.3660380  30.1285240  73.3101950  32.8157340  30.3727980  74.7349700
  34.2803230  15.4124810  72.6123680  34.8095990  14.6254610  72.4831630
  34.9131550  16.0916000  72.8459210  36.4741070  15.1499950  75.6669070
  35.8443810  14.4487260  75.8339200  35.9346210  15.9104080  75.4502230
  47.6478080  31.3064750  75.3353930  47.8230270  30.6202490  74.6914850
  46.9499650  31.8311800  74.9430600  35.4905730  31.6959590  72.8889240
  36.2224550  31.4118870  72.3413130  35.7499400  31.4572870  73.7788620
  34.6520520  27.8124320  72.8935570  34.0229400  28.2809420  73.4421400
  34.7668350  26.9673540  73.3281760  32.6646060  18.9130700  55.5864190
  31.7762760  19.2546670  55.4844070  32.9487250  18.7131020  54.6945020
  30.6279070  21.5136350  61.4703890  31.1995180  20.7458550  61.4707530
  30.6280610  21.8125110  60.5610500  31.8703940  16.9220710  63.2572820
  31.6906780  16.0246460  63.5375580  31.4684020  17.4692580  63.9319770
  34.8407450  17.4962200  56.6202570  34.9474200  18.3965930  56.9271330
  33.9299810  17.4480170  56.3297220  32.4890610  19.4181210  61.8655160
  33.1700720  19.6819580  62.4842560  32.1738660  18.5782080  62.1993170
  34.9651280  15.1047130  65.2191170  34.9669720  15.6219520  64.4137070
  34.1355590  14.6277310  65.1961100  34.6466610  16.8157090  63.2261620
  34.9883420  17.6599140  62.9315490  33.7082420  16.9640830  63.3426960
  35.4273230  26.7123110  65.2113850  36.0447230  27.3874190  64.9298300
  34.5666350  27.1211090  65.1201350  47.7974960  18.0042180  61.2550220
  46.8499870  18.0381160  61.3865650  48.1224950  18.8181130  61.6399580
  38.3294500  14.3039360  59.5506210  38.6369480  13.7486250  58.8341710
  37.3995200  14.4383820  59.3679200  35.0360520  19.6696140  62.8485100
  35.5875110  19.7791480  62.0738350  35.5504030  20.0433740  63.5640330
  35.8832030  26.3202180  67.8833070  34.9860560  26.5442150  68.1306470
  35.9084900  26.4437120  66.9344470  34.7103250  23.1915500  66.4590440
  34.5711020  24.0638300  66.8277840  33.8284610  22.8488310  66.3138380
  46.5054390  14.4238110  52.1115370  46.1927050  14.5164940  53.0114440
  47.2666860  15.0019140  52.0612800  48.4598420  29.9164300  69.9639760
  48.9358140  30.3947190  70.6428840  49.0805580  29.8481790  69.2385260
  30.6621900  24.9613050  62.3761350  30.7402320  25.0961820  61.4317070
  31.2763580  24.2528940  62.5689470  47.7155680  19.1609610  68.0889510
  47.0999950  19.6689280  67.5604970  47.3952100  18.2607940  68.0315450
  30.7181420  26.0027220  64.9155810  30.8812460  25.5332580  64.0975180
  31.1833870  25.4950780  65.5804650  35.4900190  15.1332980  59.9516380
  35.0468340  15.9142520  59.6200900  36.0485180  15.4562870  60.6587320
  39.7770000  18.0001500  65.5551700  39.3149370  18.2084520  66.3671640
  39.3748110  17.1860850  65.2522370  41.8724220  20.7212200  68.7847150
  42.1977630  19.8875950  68.4449380  42.6604550  21.2440720  68.9325480
  38.6059010  14.7543680  54.8322210  37.9813190  14.7503550  55.5575520
  38.5189130  13.8874640  54.4358180  37.5276090  15.6780310  61.8105980
  37.8248420  16.5843140  61.7298000  38.0761650  15.1899090  61.1965550
  37.7213620  21.1552130  68.3457900  37.6257220  20.2146860  68.1958300
  38.5645600  21.3767200  67.9505970  32.8524160  17.5665800  66.4991680
  32.4587550  18.4141010  66.7064460  32.1642560  16.9292170  66.6900320
  39.4269210  17.6500770  69.5688420  38.7367530  17.4572970  70.2034510
  40.1701510  17.9335410  70.1012720  30.1541210  15.4894260  60.5321760
  29.8654260  16.0597120  61.2446740  30.8986970  15.0098710  60.8952990
  30.3411440  19.4314380  51.7424480  30.2586110  20.3745140  51.8839470
  29.9894500  19.2889290  50.8636830  33.9911950  18.0479900  59.7689040
  33.6512000  18.5255130  60.5256090  33.2289270  17.5945020  59.4090140
  42.1658090  16.9432890  61.8165280  42.1830830  17.3941540  62.6607130
  41.9173670  16.0438530  62.0298720  45.5928840  14.3565070  67.6551660
  45.9174610  13.6254730  68.1809640  45.6285350  14.0378710  66.7532650
  32.2920400  25.3778650  67.0751620  31.9075190  24.7372320  67.6734580
  32.6032590  26.0814770  67.6446350  31.3058030  16.9698880  58.6853710
  31.0204950  16.6054550  59.5232330  31.2436890  16.2379340  58.0716850
  36.2316910  21.2663830  64.8744450  35.9273980  22.1455810  65.0994810
  37.1863370  21.3263620  64.9101890  40.9796620  15.8628140  55.4067080
  40.1661230  15.3641310  55.3312390  40.7858570  16.7026390  54.9903430
  40.9005480  24.5399240  67.1506690  40.8342790  23.6194910  66.8964280
  40.2710620  24.6374680  67.8651330  32.2880640  22.1066570  66.0215810
  31.9295580  22.7720420  66.6089150  31.9935200  21.2750120  66.3928430
  35.4893760  22.5650810  68.9055360  35.1893900  22.7107990  68.0083180
  36.2605000  22.0056100  68.8128750  40.8322210  27.3619810  66.9010490
  40.8466750  26.4300770  66.6829400  40.1247310  27.4479570  67.5400260
  30.7988690  22.1057830  52.6450410  31.6683540  22.3882630  52.9286330
  30.3079010  22.9193700  52.5299220  33.8635280  13.8368690  57.2381210
  33.7349910  13.8286590  58.1866130  33.0397300  14.1751780  56.8872220
  30.8629210  15.5959810  66.6987910  30.1487730  15.7956730  67.3040520
  31.2824250  14.8199380  67.0702710  31.1501800  29.5840070  67.6854440
  31.2592920  28.6434810  67.5449830  30.4982360  29.8494820  67.0368170
  39.1414390  27.8555960  69.0852560  38.8211260  27.1365200  69.6298250
  38.4672750  28.5311030  69.1588620  39.3169980  20.7421710  64.6727330
  39.8155230  21.2167530  65.3379180  39.4592930  19.8185230  64.8797360
  41.7229480  16.0475670  58.1130590  41.5997260  16.0661800  57.1640100
  42.6714040  16.0954610  58.2328990  46.5236840  16.9589670  65.5155720
  46.0210440  17.6995070  65.8549530  47.3393500  17.3473670  65.1992510
  33.2960240  30.6508980  69.4974050  34.0972970  30.9721030  69.9109450
  32.7812060  30.2904560  70.2193960  42.1324870  26.7588850  69.4449460
  41.5263030  26.7820450  68.7045210  41.8278980  26.0271890  69.9816710
  31.0158050  23.1382440  68.4410100  31.5197070  22.5589720  69.0126330
  30.2765470  23.4222670  68.9786470  38.0695990  24.5453430  67.9745620
  37.3041660  25.1138430  67.8900290  38.2511950  24.2529640  67.0813850
  33.0481130  21.2812030  69.3360170  33.0886470  20.9825900  70.2445400
  33.9026630  21.6819640  69.1767690  34.9886940  19.8604130  67.3034660
  34.4583400  19.3695080  66.6758000  35.6575010  20.2888330  66.7692590
  44.3587170  21.6669750  69.0715000  44.9407940  20.9122070  68.9835480
  44.5348940  22.1977190  68.2946480  35.4759240  16.8266500  67.3831950
  35.3816110  16.2087250  66.6582820  34.8956630  17.5532790  67.1561860
  38.2420680  15.3839740  64.4159340  37.7937980  15.4064000  63.5704890
  37.6085880  14.9858760  65.0129640  38.6480230  24.2794070  65.0371780
  39.0668340  25.1226800  64.8648020  37.7288860  24.4166110  64.8078560
  37.7512900  18.5531600  67.6785440  38.3412590  18.2447450  68.3663260
  36.9333140  18.0811350  67.8345340  42.5706330  18.1697410  67.9118460
  41.8821850  17.5078950  67.8468450  43.2912350  17.7235680  68.3566920
  43.2006730  14.7649040  53.9708720  43.4809020  13.9216940  54.3268140
  42.4272460  14.9972150  54.4847470  31.2467360  30.0143470  62.4531410
  30.8098350  30.1944270  63.2855560  31.8145040  30.7718090  62.3113130
  32.1167720  22.9116270  63.3523630  32.4840760  22.8243670  64.2319650
  31.5478540  22.1482820  63.2530490  31.6683720  19.8225360  67.2582050
  30.7739770  19.7892120  67.5975760  32.2081270  20.0212150  68.0233300
  45.3559650  16.6057080  69.1433800  46.2329830  16.6140480  69.5267800
  45.3680490  15.8687920  68.5326150  30.2929870  19.7362630  54.7545620
  29.3893950  19.9992830  54.5797280  30.7770490  20.0073800  53.9745580
  32.8357080  18.7928170  52.6640000  33.5448780  18.3711390  52.1787280
  32.1197020  18.8603400  52.0323350  32.4831240  14.8467500  51.7042650
  33.2059370  15.3876440  52.0223870  32.7555760  14.5730920  50.8284190
  32.1723430  14.0973690  61.6065270  32.8199620  13.5471070  61.1660430
  32.5925270  14.3516840  62.4281080  46.0675770  14.2915050  64.9634910
  46.7047990  14.9049190  65.3294100  46.2150660  14.3275710  64.0184140
  48.6100320  16.1828840  51.7458050  49.5349630  16.0510020  51.5376340
  48.5876110  16.2621660  52.6994500  31.9255430  14.2529360  64.3490590
  31.5770250  14.7093180  65.1148770  31.5943130  13.3586490  64.4313020
  33.5319800  27.4248960  68.5143780  33.4889430  27.0541870  69.3958240
  33.6630810  28.3626530  68.6545600  39.4380250  15.4441240  67.8710010
  39.3769140  16.0363070  68.6205420  40.3780630  15.3367200  67.7260270
  42.0754810  15.1011300  67.5102300  42.6895220  15.4190590  66.8483380
  42.6204370  14.6159890  68.1298160  32.5976070  13.7805560  67.6241360
  33.1459060  13.5993610  66.8607470  32.6631380  12.9899670  68.1597670
  42.8162850  13.6643440  63.8371590  41.9422690  13.9978550  63.6344520
  42.7073600  13.1916620  64.6623460  43.7234830  15.8714310  65.2213310
  43.3948190  15.0566070  64.8415040  44.6717130  15.8284120  65.0979000
  33.0020060  27.7369590  64.5849600  32.2754120  27.1174880  64.5175550
  33.0629210  28.1310200  63.7147680  40.5637670  14.5813280  62.7764500
  39.7809460  15.0558780  63.0561260  40.2700600  13.6768110  62.6677680
  45.1158740  15.2836380  60.8213590  45.5566830  15.2281480  59.9735190
  44.8466330  16.1994390  60.8923770  46.9797310  14.9151620  58.8322410
  46.9185710  13.9712840  58.6853430  47.7589340  15.0231710  59.3775870
  31.9078080  14.8860760  55.2978220  32.6657440  14.9989640  54.7242250
  31.4455250  15.7229960  55.2521650  42.9516870  13.6642480  59.5263600
  43.5546240  14.2362690  60.0012120  42.2109860  14.2281920  59.3037500
  46.0951470  14.0664040  54.8003880  46.2902100  14.9647490  55.0671310
  45.3081340  13.8351120  55.2936830  34.2803230  15.4124810  53.8380190
  34.8095990  14.6254610  53.7088140  34.9131550  16.0916000  54.0715720
  36.4741070  15.1499950  56.8925580  35.8443810  14.4487260  57.0595710
  35.9346210  15.9104080  56.6758740  36.5996630  14.4283930  69.3278070
  36.3180900  14.9317530  68.5638890  36.9816330  13.6305680  68.9620200
  43.2012090  13.8437510  69.9058540  43.0877540  14.1632120  70.8010060
  44.0181830  14.2450020  69.6095820  45.9810580  30.9909040  69.3877230
  46.7735900  30.4958270  69.1803190  46.2743730  31.6699180  69.9952840
  34.2554110  23.9528810  43.0278310  33.4238990  23.6977520  43.4274820
  34.8635090  24.0239580  43.7636230  34.2355370  27.9868900  43.2236330
  34.5383410  27.0966640  43.0446550  34.9798960  28.5439120  42.9958580
  32.6646060  18.9130700  36.8120700  31.7762760  19.2546670  36.7100580
  32.9487250  18.7131020  35.9201530  30.6279070  21.5136350  42.6960400
  31.1995180  20.7458550  42.6964040  30.6280610  21.8125110  41.7867010
  39.6797270  26.3166190  42.1572710  39.6105550  25.3756130  41.9961840
  40.4417130  26.4067600  42.7295280  31.8703940  16.9220710  44.4829330
  31.6906780  16.0246460  44.7632090  31.4684020  17.4692580  45.1576280
  34.8407450  17.4962200  37.8459080  34.9474200  18.3965930  38.1527840
  33.9299810  17.4480170  37.5553730  32.4890610  19.4181210  43.0911670
  33.1700720  19.6819580  43.7099070  32.1738660  18.5782080  43.4249680
  36.6815180  20.4648570  42.1784260  37.1893400  20.9629540  42.8189280
  37.2128420  19.6883770  42.0023620  36.2154130  24.7442310  44.6221180
  35.8823510  25.3711230  45.2642250  36.3920810  25.2704190  43.8422850
  34.6466610  16.8157090  44.4518130  34.9883420  17.6599140  44.1572000
  33.7082420  16.9640830  44.5683470  36.3231900  22.8952930  40.2942570
  35.9188900  22.1830180  39.7988470  36.4095020  22.5506170  41.1830610
  36.7913600  26.5820490  42.4581780  36.4941890  25.9765960  41.7789560
  37.7413420  26.6197800  42.3471140  35.0360520  19.6696140  44.0741610
  35.5875110  19.7791480  43.2994860  35.5504030  20.0433740  44.7896840
  34.7103250  23.1915500  47.6846950  34.5711020  24.0638300  48.0534350
  33.8284610  22.8488310  47.5394890  46.5054390  14.4238110  33.3371880
  46.1927050  14.5164940  34.2370950  47.2666860  15.0019140  33.2869310
  33.0236530  21.7897910  37.7949220  32.9034130  22.5160000  37.1830490
  32.7137420  21.0200820  37.3177130  31.9069530  26.6613240  40.0124040
  31.4997610  26.8027830  39.1577640  32.7982540  26.3773400  39.8095250
  30.7181420  26.0027220  46.1412320  30.8812460  25.5332580  45.3231690
  31.1833870  25.4950780  46.8061160  35.4900190  15.1332980  41.1772890
  35.0468340  15.9142520  40.8457410  36.0485180  15.4562870  41.8843830
  38.6059010  14.7543680  36.0578720  37.9813190  14.7503550  36.7832030
  38.5189130  13.8874640  35.6614690  35.2814410  20.2566550  38.9054140
  35.0555330  20.0403720  39.8100760  34.5006940  20.6895010  38.5600110
  42.5112170  20.2629920  37.5044790  41.9121060  20.9865720  37.3208410
  43.0591780  20.2006700  36.7221240  32.8524160  17.5665800  47.7248190
  32.4587550  18.4141010  47.9320970  32.1642560  16.9292170  47.9156830
  30.1541210  15.4894260  41.7578270  29.8654260  16.0597120  42.4703250
  30.8986970  15.0098710  42.1209500  33.9911950  18.0479900  40.9945550
  33.6512000  18.5255130  41.7512600  33.2289270  17.5945020  40.6346650
  32.2920400  25.3778650  48.3008130  31.9075190  24.7372320  48.8991090
  32.6032590  26.0814770  48.8702860  31.3058030  16.9698880  39.9110220
  31.0204950  16.6054550  40.7488840  31.2436890  16.2379340  39.2973360
  36.2316910  21.2663830  46.1000960  35.9273980  22.1455810  46.3251320
  37.1863370  21.3263620  46.1358400  40.9796620  15.8628140  36.6323590
  40.1661230  15.3641310  36.5568900  40.7858570  16.7026390  36.2159940
  43.6945010  20.2347790  34.9285750  44.5824630  20.5465020  34.7537090
  43.6650100  19.3620040  34.5366330  34.8036100  25.1405200  40.3346620
  35.3214770  24.3373460  40.2803510  34.3520120  25.0784340  41.1763450
  32.2880640  22.1066570  47.2472320  31.9295580  22.7720420  47.8345660
  31.9935200  21.2750120  47.6184940  37.9623500  23.4931040  37.9915200
  38.4186280  24.3036290  38.2175390  37.6111710  23.1754180  38.8233690
  33.8635280  13.8368690  38.4637720  33.7349910  13.8286590  39.4122640
  33.0397300  14.1751780  38.1128730  30.8629210  15.5959810  47.9244420
  30.1487730  15.7956730  48.5297030  31.2824250  14.8199380  48.2959220
  45.7230020  17.0439060  36.4833430  45.0943180  17.1484730  35.7691660
  45.2281940  17.2635840  37.2727310  37.6914050  19.3225010  37.8991310
  36.9830200  19.7911350  38.3404920  37.9758530  18.6647020  38.5336500
  41.7229480  16.0475670  39.3387100  41.5997260  16.0661800  38.3896610
  42.6714040  16.0954610  39.4585500  35.8949070  17.6310090  35.2742020
  36.7439600  18.0680240  35.2082210  35.5280340  17.9430350  36.1014080
  31.0158050  23.1382440  49.6666610  31.5197070  22.5589720  50.2382840
  30.2765470  23.4222670  50.2042980  43.2006730  14.7649040  35.1965230
  43.4809020  13.9216940  35.5524650  42.4272460  14.9972150  35.7103980
  37.7386150  15.9976050  33.6412430  37.3908150  15.3200040  33.0614880
  37.9398920  15.5365560  34.4555820  31.0791790  22.5263700  40.0376800
  30.4240630  22.2575340  39.3936500  31.9169740  22.4168180  39.5878780
  44.0282230  17.3204990  34.2595290  44.4467110  17.1335970  33.4191950
  43.7218290  16.4684040  34.5698220  32.1167720  22.9116270  44.5780140
  32.4840760  22.8243670  45.4576160  31.5478540  22.1482820  44.4787000
  31.6683720  19.8225360  48.4838560  30.7739770  19.7892120  48.8232270
  32.2081270  20.0212150  49.2489810  32.4831240  14.8467500  32.9299160
  33.2059370  15.3876440  33.2480380  32.7555760  14.5730920  32.0540700
  32.1723430  14.0973690  42.8321780  32.8199620  13.5471070  42.3916940
  32.5925270  14.3516840  43.6537590  48.6100320  16.1828840  32.9714560
  49.5349630  16.0510020  32.7632850  48.5876110  16.2621660  33.9251010
  31.9255430  14.2529360  45.5747100  31.5770250  14.7093180  46.3405280
  31.5943130  13.3586490  45.6569530  32.5976070  13.7805560  48.8497870
  33.1459060  13.5993610  48.0863980  32.6631380  12.9899670  49.3854180
  36.6065160  29.9514590  42.5955520  37.1230180  29.3401950  42.0703780
  37.2562540  30.4543370  43.0866530  31.9078080  14.8860760  36.5234730
  32.6657440  14.9989640  35.9498760  31.4455250  15.7229960  36.4778160
  38.4491890  17.0000030  39.5137040  37.6366400  16.6256920  39.1732920
  38.9533530  16.2445110  39.8158230  46.0951470  14.0664040  36.0260390
  46.2902100  14.9647490  36.2927820  45.3081340  13.8351120  36.5193340
  34.2803230  15.4124810  35.0636700  34.8095990  14.6254610  34.9344650
  34.9131550  16.0916000  35.2972230  36.4741070  15.1499950  38.1182090
  35.8443810  14.4487260  38.2852220  35.9346210  15.9104080  37.9015250
  43.2012090  13.8437510  51.1315050  43.0877540  14.1632120  52.0266570
  44.0181830  14.2450020  50.8352330  44.2595710  28.0469190  22.1558190
  43.7977240  27.2756430  22.4845360  45.0721260  28.0735260  22.6610640
  32.6646060  18.9130700  18.0377210  31.7762760  19.2546670  17.9357090
  32.9487250  18.7131020  17.1458040  30.6279070  21.5136350  23.9216910
  31.1995180  20.7458550  23.9220550  30.6280610  21.8125110  23.0123520
  31.8703940  16.9220710  25.7085840  31.6906780  16.0246460  25.9888600
  31.4684020  17.4692580  26.3832790  34.8407450  17.4962200  19.0715590
  34.9474200  18.3965930  19.3784350  33.9299810  17.4480170  18.7810240
  44.4926560  16.6187010  20.5426490  45.3136180  16.1283580  20.5851970
  44.5260640  17.2084670  21.2958330  32.4890610  19.4181210  24.3168180
  33.1700720  19.6819580  24.9355580  32.1738660  18.5782080  24.6506190
  48.7826110  18.6353760  27.1070120  48.0778280  19.0235470  26.5885230
  49.0484030  19.3304050  27.7091050  34.9651280  15.1047130  27.6704190
  34.9669720  15.6219520  26.8650090  34.1355590  14.6277310  27.6474120
  44.7288040  18.5587390  23.3154030  44.0243610  18.8472280  23.8957140
  45.0900200  19.3687500  22.9553590  30.7205570  25.9022970  16.5433720
  30.3433550  26.3910070  15.8118620  30.9778640  26.5748250  17.1740250
  47.7974960  18.0042180  23.7063240  46.8499870  18.0381160  23.8378670
  48.1224950  18.8181130  24.0912600  38.3294500  14.3039360  22.0019230
  38.6369480  13.7486250  21.2854730  37.3995200  14.4383820  21.8192220
  45.1754980  26.7422870  19.3816860  45.0651310  25.7997200  19.5066280
  45.1723230  27.1038510  20.2679620  40.7044340  18.6405190  15.7346510
  39.7648010  18.8019150  15.8198970  41.0227600  19.3590870  15.1882500
  47.2257100  23.3223710  25.7125540  46.3975730  23.3916800  25.2375670
  47.8207580  23.9078020  25.2441370  44.7472550  23.9308490  19.2414600
  44.1284970  23.5928040  18.5940900  44.7297000  23.2868250  19.9493790
  44.1899110  20.1093030  26.6580410  43.7770290  20.9346740  26.9120400
  43.4575060  19.5238070  26.4656770  42.9237250  23.1695300  16.2487350
  43.3630530  22.3317730  16.1025170  43.6365670  23.8024700  16.3351490
  41.0332630  28.1091370  20.2168590  41.4728540  28.8515700  19.8023980
  40.9719520  28.3517940  21.1407550  46.5054390  14.4238110  14.5628390
  46.1927050  14.5164940  15.4627460  47.2666860  15.0019140  14.5125820
  33.0236530  21.7897910  19.0205730  32.9034130  22.5160000  18.4087000
  32.7137420  21.0200820  18.5433640  30.6621900  24.9613050  24.8274370
  30.7402320  25.0961820  23.8830090  31.2763580  24.2528940  25.0202490
  31.9069530  26.6613240  21.2380550  31.4997610  26.8027830  20.3834150
  32.7982540  26.3773400  21.0351760  43.7002810  31.0960490  17.5731600
  43.5403950  30.8063430  18.4713430  43.5349520  30.3200620  17.0376830
  36.1791190  30.8759020  19.3503220  36.0033670  29.9594560  19.1371020
  35.3246930  31.2346310  19.5901020  43.4028940  28.6048050  16.1329600
  42.7094100  28.6025340  15.4731880  44.1451800  28.1807370  15.7023770
  42.9678870  30.2310760  20.2078090  43.4235820  29.4500140  20.5216710
  43.3071390  30.9417580  20.7519270  47.7155680  19.1609610  30.5402530
  47.0999950  19.6689280  30.0117990  47.3952100  18.2607940  30.4828470
  35.4900190  15.1332980  22.4029400  35.0468340  15.9142520  22.0713920
  36.0485180  15.4562870  23.1100340  44.7774510  19.2210450  29.1361380
  43.9268100  18.9216200  29.4570450  44.6176300  19.4652460  28.2245200
  38.6059010  14.7543680  17.2835230  37.9813190  14.7503550  18.0088540
  38.5189130  13.8874640  16.8871200  37.5276090  15.6780310  24.2619000
  37.8248420  16.5843140  24.1811020  38.0761650  15.1899090  23.6478570
  42.5112170  20.2629920  18.7301300  41.9121060  20.9865720  18.5464920
  43.0591780  20.2006700  17.9477750  41.1177040  18.8993460  20.7604580
  41.5106610  19.2165660  19.9473270  41.4793890  18.0205340  20.8749100
  30.1541210  15.4894260  22.9834780  29.8654260  16.0597120  23.6959760
  30.8986970  15.0098710  23.3466010  30.3411440  19.4314380  14.1937500
  30.2586110  20.3745140  14.3352490  29.9894500  19.2889290  13.3149850
  33.9911950  18.0479900  22.2202060  33.6512000  18.5255130  22.9769110
  33.2289270  17.5945020  21.8603160  38.2029720  19.1665490  16.2514610
  38.3242540  19.1251970  17.2000430  37.8178230  20.0289640  16.0961340
  42.1658090  16.9432890  24.2678300  42.1830830  17.3941540  25.1120150
  41.9173670  16.0438530  24.4811740  37.2151220  21.4766630  15.6497910
  36.6468120  21.0284880  15.0233820  37.9240220  21.8359410  15.1163060
  45.5928840  14.3565070  30.1064680  45.9174610  13.6254730  30.6322660
  45.6285350  14.0378710  29.2045670  31.3058030  16.9698880  21.1366730
  31.0204950  16.6054550  21.9745350  31.2436890  16.2379340  20.5229870
  34.7598700  25.4724820  17.9224320  33.9860960  24.9322440  17.7623040
  35.4893330  24.9531430  17.5842080  45.5186680  24.4690180  23.7150710
  46.2385800  24.9645470  23.3246820  45.3168500  23.7908070  23.0704580
  40.9796620  15.8628140  17.8580100  40.1661230  15.3641310  17.7825410
  40.7858570  16.7026390  17.4416450  43.6945010  20.2347790  16.1542260
  44.5824630  20.5465020  15.9793600  43.6650100  19.3620040  15.7622840
  39.6905600  26.4071480  16.8330430  40.0321300  27.1513710  16.3373750
  38.8618310  26.7202600  17.1955260  45.9659280  21.5459630  15.6222120
  45.8823000  21.9773850  14.7718560  46.6853470  22.0057980  16.0548940
  47.0433420  24.0027150  28.6992090  46.3181610  24.5955930  28.5021480
  47.5708880  23.9950690  27.9005460  46.9946530  28.4001890  18.3504250
  46.3522690  27.7457510  18.6247970  46.6077190  28.8056980  17.5744920
  30.7988690  22.1057830  15.0963430  31.6683540  22.3882630  15.3799350
  30.3079010  22.9193700  14.9812240  33.8635280  13.8368690  19.6894230
  33.7349910  13.8286590  20.6379150  33.0397300  14.1751780  19.3385240
  45.3843910  27.2918350  14.8880600  45.1581490  26.5748790  15.4805240
  44.9940110  27.0430790  14.0502350  31.1659940  31.3185210  15.6625060
  31.5257580  31.9174550  15.0082330  31.0252280  31.8645100  16.4360090
  30.8629210  15.5959810  29.1500930  30.1487730  15.7956730  29.7553540
  31.2824250  14.8199380  29.5215730  44.9660160  25.2090290  16.5494760
  44.6781860  25.6702980  17.3372640  45.7612330  24.7488060  16.8178980
  37.1828560  28.7016410  16.4798730  37.1738660  29.4346100  15.8643240
  36.2626920  28.4547990  16.5725690  32.7835200  23.9231300  17.2245490
  32.1763150  24.6630200  17.2340790  33.2584550  24.0130660  16.3983690
  42.3567990  18.0882120  26.9002380  42.7248810  17.2677330  27.2281950
  41.4966190  18.1484010  27.3158030  45.7230020  17.0439060  17.7089940
  45.0943180  17.1484730  16.9948170  45.2281940  17.2635840  18.4983820
  40.1688160  28.7644650  15.1423920  40.2700140  28.5608640  14.2125900
  39.2689900  28.5102930  15.3471700  41.7229480  16.0475670  20.5643610
  41.5997260  16.0661800  19.6153120  42.6714040  16.0954610  20.6842010
  38.8106270  31.2830970  19.8371590  39.0647770  31.2452360  18.9150960
  37.8618750  31.1564300  19.8299840  35.8949070  17.6310090  16.4998530
  36.7439600  18.0680240  16.4338720  35.5280340  17.9430350  17.3270590
  46.5236840  16.9589670  27.9668740  46.0210440  17.6995070  28.3062550
  47.3393500  17.3473670  27.6505530  44.8158850  22.2022850  21.4130100
  43.8748990  22.2173080  21.5877790  45.1302920  21.4158810  21.8590400
  34.7940490  23.8842450  14.9734060  35.5603760  23.7723810  15.5359490
  34.8715180  23.1880420  14.3210830  33.4887250  21.3167520  15.6566950
  33.5690840  20.3695030  15.7684350  34.3807000  21.6474400  15.7627610
  31.1747440  27.5336480  18.6343000  30.2487220  27.7757620  18.6248410
  31.6403870  28.3610740  18.5127750  37.4004270  30.6393220  14.5827060
  38.1932880  30.9282050  14.1308850  36.8808620  30.2085390  13.9039540
  46.4534440  29.8663350  16.0063800  46.1675950  29.4528490  15.1917980
  46.2553990  30.7951060  15.8864320  37.9181670  25.8596630  14.4469410
  37.8132310  25.2448980  15.1730790  37.7505890  25.3362520  13.6632420
  41.1584400  24.9216660  15.0511400  40.6094500  25.3685960  15.6954140
  41.7803660  24.4165910  15.5749070  36.8259520  23.8807580  16.9476700
  37.2475940  23.7147450  17.7908090  36.9510360  23.0707810  16.4531840
  39.3387160  22.9045190  14.1953800  39.8592820  22.1894210  13.8294950
  39.9855560  23.5431060  14.4954310  38.2420680  15.3839740  26.8672360
  37.7937980  15.4064000  26.0217910  37.6085880  14.9858760  27.4642660
  35.7218420  19.9540810  13.8934860  35.5207480  19.0908170  14.2548200
  35.5510470  19.8674170  12.9556460  42.5706330  18.1697410  30.3631480
  41.8821850  17.5078950  30.2981470  43.2912350  17.7235680  30.8079940
  43.2006730  14.7649040  16.4221740  43.4809020  13.9216940  16.7781160
  42.4272460  14.9972150  16.9360490  34.5201220  17.0541430  13.8812740
  34.8227120  17.0608860  12.9731890  35.2595810  16.7039290  14.3780400
  37.7386150  15.9976050  14.8668940  37.3908150  15.3200040  14.2871390
  37.9398920  15.5365560  15.6812330  39.9035190  30.9856800  16.4855540
  40.7985980  31.3241770  16.5074300  39.9352820  30.2636210  15.8579820
  33.5431350  26.3583850  14.7142540  33.9806220  26.9013520  15.3700120
  34.0279080  25.5330800  14.7238880  35.3539070  27.4781890  19.8264770
  35.0534610  27.3546860  20.7268680  35.2476560  26.6190480  19.4180500
  48.1230990  27.2578290  14.5291450  47.2923950  27.3254940  14.9998680
  48.3002820  28.1482410  14.2258310  47.5787450  24.0025770  17.0325650
  48.3406360  24.5722420  17.1385340  47.5941820  23.4352970  17.8033960
  31.0791790  22.5263700  21.2633310  30.4240630  22.2575340  20.6193010
  31.9169740  22.4168180  20.8135290  48.5847420  24.8575870  21.8767580
  48.9556250  24.0743190  21.4703550  49.2249350  25.5464970  21.6984880
  47.6306620  24.2960140  14.1898170  47.9055460  25.2039020  14.0617390
  47.4417360  24.2322670  15.1260160  44.0282230  17.3204990  15.4851800
  44.4467110  17.1335970  14.6448460  43.7218290  16.4684040  15.7954730
  47.5271960  22.2329130  19.1827600  47.1515560  21.4657060  18.7508890
  46.7975080  22.6151830  19.6702530  46.9171580  21.3800650  28.8167120
  46.6857670  21.1513400  27.9165070  47.1776130  22.3000200  28.7712010
  45.3559650  16.6057080  31.5946820  46.2329830  16.6140480  31.9780820
  45.3680490  15.8687920  30.9839170  30.2929870  19.7362630  17.2058640
  29.3893950  19.9992830  17.0310300  30.7770490  20.0073800  16.4258600
  46.8022920  20.4586620  22.4834840  47.3260400  19.9649270  21.8525010
  47.3882340  20.5936980  23.2282410  46.9812640  20.5426490  26.0054390
  46.0315350  20.5090030  26.1199380  47.1625650  21.4526600  25.7704160
  32.8357080  18.7928170  15.1153020  33.5448780  18.3711390  14.6300300
  32.1197020  18.8603400  14.4836370  32.4831240  14.8467500  14.1555670
  33.2059370  15.3876440  14.4736890  32.7555760  14.5730920  13.2797210
  46.2922890  19.7159970  18.4227250  46.7882010  19.4830840  19.2076130
  46.0938960  18.8771810  18.0064890  32.1723430  14.0973690  24.0578290
  32.8199620  13.5471070  23.6173450  32.5925270  14.3516840  24.8794100
  47.7210050  18.3520920  20.9564930  47.6109330  18.1976960  21.8947200
  48.4817640  17.8241860  20.7140340  46.0675770  14.2915050  27.4147930
  46.7047990  14.9049190  27.7807120  46.2150660  14.3275710  26.4697160
  48.6100320  16.1828840  14.1971070  49.5349630  16.0510020  13.9889360
  48.5876110  16.2621660  15.1507520  48.6838810  16.9539500  16.8227780
  47.8890310  16.8884620  17.3520690  48.8882090  17.8890140  16.8113130
  31.9255430  14.2529360  26.8003610  31.5770250  14.7093180  27.5661790
  31.5943130  13.3586490  26.8826040  39.4380250  15.4441240  30.3223030
  39.3769140  16.0363070  31.0718440  40.3780630  15.3367200  30.1773290
  42.0754810  15.1011300  29.9615320  42.6895220  15.4190590  29.2996400
  42.6204370  14.6159890  30.5811180  32.5976070  13.7805560  30.0754380
  33.1459060  13.5993610  29.3120490  32.6631380  12.9899670  30.6110690
  42.8162850  13.6643440  26.2884610  41.9422690  13.9978550  26.0857540
  42.7073600  13.1916620  27.1136480  43.7234830  15.8714310  27.6726330
  43.3948190  15.0566070  27.2928060  44.6717130  15.8284120  27.5492020
  40.5637670  14.5813280  25.2277520  39.7809460  15.0558780  25.5074280
  40.2700600  13.6768110  25.1190700  45.1158740  15.2836380  23.2726610
  45.5566830  15.2281480  22.4248210  44.8466330  16.1994390  23.3436790
  46.9797310  14.9151620  21.2835430  46.9185710  13.9712840  21.1366450
  47.7589340  15.0231710  21.8288890  31.9078080  14.8860760  17.7491240
  32.6657440  14.9989640  17.1755270  31.4455250  15.7229960  17.7034670
  38.4491890  17.0000030  20.7393550  37.6366400  16.6256920  20.3989430
  38.9533530  16.2445110  21.0414740  42.9516870  13.6642480  21.9776620
  43.5546240  14.2362690  22.4525140  42.2109860  14.2281920  21.7550520
  46.0951470  14.0664040  17.2516900  46.2902100  14.9647490  17.5184330
  45.3081340  13.8351120  17.7449850  34.2803230  15.4124810  16.2893210
  34.8095990  14.6254610  16.1601160  34.9131550  16.0916000  16.5228740
  36.4741070  15.1499950  19.3438600  35.8443810  14.4487260  19.5108730
  35.9346210  15.9104080  19.1271760  47.6478080  31.3064750  19.0123460
  47.8230270  30.6202490  18.3684380  46.9499650  31.8311800  18.6200130
  36.5996630  14.4283930  31.7791090  36.3180900  14.9317530  31.0151910
  36.9816330  13.6305680  31.4133220  35.4905730  31.6959590  16.5658770
  36.2224550  31.4118870  16.0182660  35.7499400  31.4572870  17.4558150
  34.6520520  27.8124320  16.5705100  34.0229400  28.2809420  17.1190930
  34.7668350  26.9673540  17.0051290  43.2012090  13.8437510  32.3571560
  43.0877540  14.1632120  33.2523080  44.0181830  14.2450020  32.0608840
  42.1070240  21.8629980   2.7206300  42.0264290  20.9484590   2.4498010
  41.6934660  22.3597050   2.0146010  40.2388280  23.6409000   4.6015570
  39.4630380  23.1609440   4.8914140  40.8901210  22.9614650   4.4271730
  34.2554110  23.9528810   5.4791330  33.4238990  23.6977520   5.8787840
  34.8635090  24.0239580   6.2149250  44.2595710  28.0469190   3.3814700
  43.7977240  27.2756430   3.7101870  45.0721260  28.0735260   3.8867150
  34.2355370  27.9868900   5.6749350  34.5383410  27.0966640   5.4959570
  34.9798960  28.5439120   5.4471600  30.6279070  21.5136350   5.1473420
  31.1995180  20.7458550   5.1477060  30.6280610  21.8125110   4.2380030
  40.4859020  30.3327200   3.0018690  39.8670460  30.7884700   2.4313130
  41.3410800  30.4878660   2.6008390  39.6797270  26.3166190   4.6085730
  39.6105550  25.3756130   4.4474860  40.4417130  26.4067600   5.1808300
  31.8703940  16.9220710   6.9342350  31.6906780  16.0246460   7.2145110
  31.4684020  17.4692580   7.6089300  40.7102440  19.1236570   4.8354660
  41.0867260  18.2508450   4.7228330  40.6121950  19.4595270   3.9445100
  44.4926560  16.6187010   1.7683000  45.3136180  16.1283580   1.8108480
  44.5260640  17.2084670   2.5214840  32.4890610  19.4181210   5.5424690
  33.1700720  19.6819580   6.1612090  32.1738660  18.5782080   5.8762700
  36.6815180  20.4648570   4.6297280  37.1893400  20.9629540   5.2702300
  37.2128420  19.6883770   4.4536640  48.7826110  18.6353760   8.3326630
  48.0778280  19.0235470   7.8141740  49.0484030  19.3304050   8.9347560
  34.9651280  15.1047130   8.8960700  34.9669720  15.6219520   8.0906600
  34.1355590  14.6277310   8.8730630  36.2154130  24.7442310   7.0734200
  35.8823510  25.3711230   7.7155270  36.3920810  25.2704190   6.2935870
  44.7288040  18.5587390   4.5410540  44.0243610  18.8472280   5.1213650
  45.0900200  19.3687500   4.1810100  34.6466610  16.8157090   6.9031150
  34.9883420  17.6599140   6.6085020  33.7082420  16.9640830   7.0196490
  35.4273230  26.7123110   8.8883380  36.0447230  27.3874190   8.6067830
  34.5666350  27.1211090   8.7970880  46.3450820  28.1762520   6.8038020
  45.6614340  28.8461630   6.7954690  46.8845110  28.3743170   6.0382880
  47.7974960  18.0042180   4.9319750  46.8499870  18.0381160   5.0635180
  48.1224950  18.8181130   5.3169110  38.3294500  14.3039360   3.2275740
  38.6369480  13.7486250   2.5111240  37.3995200  14.4383820   3.0448730
  43.8809560  30.0206650   5.5183200  43.8936720  29.6168940   4.6505460
  43.3284780  30.7953940   5.4144630  43.2795000  24.9236490   6.8465810
  43.6963790  24.7096600   6.0119270  44.0034820  25.1809280   7.4174430
  47.2257100  23.3223710   6.9382050  46.3975730  23.3916800   6.4632180
  47.8207580  23.9078020   6.4697880  44.1899110  20.1093030   7.8836920
  43.7770290  20.9346740   8.1376910  43.4575060  19.5238070   7.6913280
  36.3231900  22.8952930   2.7455590  35.9188900  22.1830180   2.2501490
  36.4095020  22.5506170   3.6343630  36.7913600  26.5820490   4.9094800
  36.4941890  25.9765960   4.2302580  37.7413420  26.6197800   4.7984160
  35.0360520  19.6696140   6.5254630  35.5875110  19.7791480   5.7507880
  35.5504030  20.0433740   7.2409860  44.8799210  30.1552360   8.5717900
  44.4029770  30.9624550   8.3790510  44.1961000  29.5030690   8.7244110
  35.8832030  26.3202180  11.5602600  34.9860560  26.5442150  11.8076000
  35.9084900  26.4437120  10.6114000  34.7103250  23.1915500  10.1359970
  34.5711020  24.0638300  10.5047370  33.8284610  22.8488310   9.9907910
  36.5083600  29.1337200  12.3445120  36.4799030  29.5380150  11.4773550
  36.3448570  28.2047560  12.1816720  48.4598420  29.9164300  13.6409290
  48.9358140  30.3947190  14.3198370  49.0805580  29.8481790  12.9154790
  30.6621900  24.9613050   6.0530880  30.7402320  25.0961820   5.1086600
  31.2763580  24.2528940   6.2459000  47.8631670  27.1077150  10.8009300
  47.9894730  26.8689030   9.8826480  47.9053050  26.2761690  11.2731380
  41.7248410  30.8105150   9.3704110  42.2393080  30.7213160  10.1726540
  40.8817490  31.1564850   9.6632020  47.7155680  19.1609610  11.7659040
  47.0999950  19.6689280  11.2374500  47.3952100  18.2607940  11.7084980
  30.7181420  26.0027220   8.5925340  30.8812460  25.5332580   7.7744710
  31.1833870  25.4950780   9.2574180  35.4900190  15.1332980   3.6285910
  35.0468340  15.9142520   3.2970430  36.0485180  15.4562870   4.3356850
  39.7770000  18.0001500   9.2321230  39.3149370  18.2084520  10.0441170
  39.3748110  17.1860850   8.9291900  44.7774510  19.2210450  10.3617890
  43.9268100  18.9216200  10.6826960  44.6176300  19.4652460   9.4501710
  41.8724220  20.7212200  12.4616680  42.1977630  19.8875950  12.1218910
  42.6604550  21.2440720  12.6095010  37.5276090  15.6780310   5.4875510
  37.8248420  16.5843140   5.4067530  38.0761650  15.1899090   4.8735080
  37.7213620  21.1552130  12.0227430  37.6257220  20.2146860  11.8727830
  38.5645600  21.3767200  11.6275500  32.8524160  17.5665800  10.1761210
  32.4587550  18.4141010  10.3833990  32.1642560  16.9292170  10.3669850
  39.4269210  17.6500770  13.2457950  38.7367530  17.4572970  13.8804040
  40.1701510  17.9335410  13.7782250  30.1541210  15.4894260   4.2091290
  29.8654260  16.0597120   4.9216270  30.8986970  15.0098710   4.5722520
  41.7032180  21.4899210   6.0811870  40.9713300  21.9986020   6.4301970
  41.3056520  20.6729190   5.7800650  38.1409570  18.1653410   4.4864360
  38.1445630  17.7243360   3.6368900  39.0360690  18.4870740   4.5936180
  33.9911950  18.0479900   3.4458570  33.6512000  18.5255130   4.2025620
  33.2289270  17.5945020   3.0859670  42.1658090  16.9432890   5.4934810
  42.1830830  17.3941540   6.3376660  41.9173670  16.0438530   5.7068250
  45.5928840  14.3565070  11.3321190  45.9174610  13.6254730  11.8579170
  45.6285350  14.0378710  10.4302180  32.2920400  25.3778650  10.7521150
  31.9075190  24.7372320  11.3504110  32.6032590  26.0814770  11.3215880
  38.4417540  22.2255190   6.2329770  38.8087670  21.7513760   6.9791110
  38.2522600  23.0996760   6.5738110  31.3058030  16.9698880   2.3623240
  31.0204950  16.6054550   3.2001860  31.2436890  16.2379340   1.7486380
  36.2316910  21.2663830   8.5513980  35.9273980  22.1455810   8.7764340
  37.1863370  21.3263620   8.5871420  45.5186680  24.4690180   4.9407220
  46.2385800  24.9645470   4.5503330  45.3168500  23.7908070   4.2961090
  40.9005480  24.5399240  10.8276220  40.8342790  23.6194910  10.5733810
  40.2710620  24.6374680  11.5420860  34.8036100  25.1405200   2.7859640
  35.3214770  24.3373460   2.7316530  34.3520120  25.0784340   3.6276470
  32.2880640  22.1066570   9.6985340  31.9295580  22.7720420  10.2858680
  31.9935200  21.2750120  10.0697960  35.4893760  22.5650810  12.5824890
  35.1893900  22.7107990  11.6852710  36.2605000  22.0056100  12.4898280
  40.8322210  27.3619810  10.5780020  40.8466750  26.4300770  10.3598930
  40.1247310  27.4479570  11.2169790  47.0433420  24.0027150   9.9248600
  46.3181610  24.5955930   9.7277990  47.5708880  23.9950690   9.1261970
  42.5733010  25.7287320   3.4232450  42.9256830  25.1315450   2.7633820
  41.6895340  25.4031550   3.5940700  40.2656110  29.0037380   7.6720520
  40.9098330  29.2096760   8.3493940  40.6285550  28.2425780   7.2191370
  41.5388190  27.0069730   6.3897970  42.1810420  26.3062890   6.5030140
  42.0637540  27.7868170   6.2094860  43.3125810  27.8064630   9.5934030
  43.6482050  28.3931320  10.2711950  42.3926150  27.6757340   9.8231820
  30.8629210  15.5959810  10.3757440  30.1487730  15.7956730  10.9810050
  31.2824250  14.8199380  10.7472240  31.1501800  29.5840070  11.3623970
  31.2592920  28.6434810  11.2219360  30.4982360  29.8494820  10.7137700
  39.1414390  27.8555960  12.7622090  38.8211260  27.1365200  13.3067780
  38.4672750  28.5311030  12.8358150  42.3567990  18.0882120   8.1258890
  42.7248810  17.2677330   8.4538460  41.4966190  18.1484010   8.5414540
  39.3169980  20.7421710   8.3496860  39.8155230  21.2167530   9.0148710
  39.4592930  19.8185230   8.5566890  46.5236840  16.9589670   9.1925250
  46.0210440  17.6995070   9.5319060  47.3393500  17.3473670   8.8762040
  44.8158850  22.2022850   2.6386610  43.8748990  22.2173080   2.8134300
  45.1302920  21.4158810   3.0846910  46.8184430  29.3731700   4.3140870
  46.9431850  30.1962870   4.7864680  47.6849990  29.1622430   3.9665020
  34.2901960  31.4662910   3.9858000  35.0264440  30.9178370   4.2566570
  34.6742880  32.3318920   3.8463990  33.2960240  30.6508980  13.1743580
  34.0972970  30.9721030  13.5878980  32.7812060  30.2904560  13.8963490
  42.1324870  26.7588850  13.1218990  41.5263030  26.7820450  12.3814740
  41.8278980  26.0271890  13.6586240  43.5625240  30.4869140  11.7328400
  44.5146990  30.4027160  11.6828640  43.4153460  31.1510850  12.4062190
  31.0158050  23.1382440  12.1179630  31.5197070  22.5589720  12.6895860
  30.2765470  23.4222670  12.6556000  38.0695990  24.5453430  11.6515150
  37.3041660  25.1138430  11.5669820  38.2511950  24.2529640  10.7583380
  45.2119340  26.2758760  12.2090170  45.9528810  26.6134520  11.7057630
  44.4492020  26.4450820  11.6559940  33.0481130  21.2812030  13.0129700
  33.0886470  20.9825900  13.9214930  33.9026630  21.6819640  12.8537220
  34.9886940  19.8604130  10.9804190  34.4583400  19.3695080  10.3527530
  35.6575010  20.2888330  10.4462120  43.8865000  24.3273590  10.7445380
  44.3006020  24.4818670  11.5935800  42.9516000  24.4528810  10.9071160
  44.3587170  21.6669750  12.7484530  44.9407940  20.9122070  12.6605010
  44.5348940  22.1977190  11.9716010  35.4759240  16.8266500  11.0601480
  35.3816110  16.2087250  10.3352350  34.8956630  17.5532790  10.8331390
  38.2420680  15.3839740   8.0928870  37.7937980  15.4064000   7.2474420
  37.6085880  14.9858760   8.6899170  38.6480230  24.2794070   8.7141310
  39.0668340  25.1226800   8.5417550  37.7288860  24.4166110   8.4848090
  40.9844130  22.0110250  10.0979150  41.1040340  21.4151390  10.8373990
  41.8438130  22.0479940   9.6780450  43.3232030  22.5647440   8.6741660
  42.7967250  23.0890060   8.0706800  43.6663370  23.1974830   9.3051390
  36.4987650  30.5847080   9.8299040  35.9608740  31.3093140   9.5107740
  36.7521610  30.1077420   9.0396380  37.7512900  18.5531600  11.3554970
  38.3412590  18.2447450  12.0432790  36.9333140  18.0811350  11.5114870
  42.5706330  18.1697410  11.5887990  41.8821850  17.5078950  11.5237980
  43.2912350  17.7235680  12.0336450  39.3549860  31.8198290  10.0885690
  39.2808560  32.7233430  10.3958060  38.4528700  31.5010190  10.0607760
  30.7577150  29.1472880   3.3919310  31.0880160  28.2793940   3.1597950
  31.1868150  29.3531400   4.2224270  31.2467360  30.0143470   6.1300940
  30.8098350  30.1944270   6.9625090  31.8145040  30.7718090   5.9882660
  46.8829540  29.5160470  10.4178250  46.2831530  29.5753030   9.6742170
  47.0123440  28.5765450  10.5475100  31.0791790  22.5263700   2.4889820
  30.4240630  22.2575340   1.8449520  31.9169740  22.4168180   2.0391800
  48.5847420  24.8575870   3.1024090  48.9556250  24.0743190   2.6960060
  49.2249350  25.5464970   2.9241390  45.5681180  26.2412450   8.5154410
  44.7541020  26.6709610   8.7780200  45.9755380  26.8530860   7.9023460
  32.1167720  22.9116270   7.0293160  32.4840760  22.8243670   7.9089180
  31.5478540  22.1482820   6.9300020  46.9171580  21.3800650  10.0423630
  46.6857670  21.1513400   9.1421580  47.1776130  22.3000200   9.9968520
  31.6683720  19.8225360  10.9351580  30.7739770  19.7892120  11.2745290
  32.2081270  20.0212150  11.7002830  45.3559650  16.6057080  12.8203330
  46.2329830  16.6140480  13.2037330  45.3680490  15.8687920  12.2095680
  46.8022920  20.4586620   3.7091350  47.3260400  19.9649270   3.0781520
  47.3882340  20.5936980   4.4538920  46.9812640  20.5426490   7.2310900
  46.0315350  20.5090030   7.3455890  47.1625650  21.4526600   6.9960670
  32.1723430  14.0973690   5.2834800  32.8199620  13.5471070   4.8429960
  32.5925270  14.3516840   6.1050610  47.7210050  18.3520920   2.1821440
  47.6109330  18.1976960   3.1203710  48.4817640  17.8241860   1.9396850
  46.0675770  14.2915050   8.6404440  46.7047990  14.9049190   9.0063630
  46.2150660  14.3275710   7.6953670  31.9255430  14.2529360   8.0260120
  31.5770250  14.7093180   8.7918300  31.5943130  13.3586490   8.1082550
  33.5319800  27.4248960  12.1913310  33.4889430  27.0541870  13.0727770
  33.6630810  28.3626530  12.3315130  37.2325830  28.9808550   7.7923030
  36.9917190  29.2483110   6.9053550  38.1728470  29.1514280   7.8473890
  39.4380250  15.4441240  11.5479540  39.3769140  16.0363070  12.2974950
  40.3780630  15.3367200  11.4029800  42.0754810  15.1011300  11.1871830
  42.6895220  15.4190590  10.5252910  42.6204370  14.6159890  11.8067690
  48.4929990  31.0002930   8.5933670  47.9988270  31.3971800   7.8760800
  47.8843280  30.3752140   8.9870950  32.5976070  13.7805560  11.3010890
  33.1459060  13.5993610  10.5377000  32.6631380  12.9899670  11.8367200
  33.3707830  30.3711210   9.3111090  32.7768150  30.2395910  10.0501130
  33.3631670  29.5349350   8.8453190  42.8162850  13.6643440   7.5141120
  41.9422690  13.9978550   7.3114050  42.7073600  13.1916620   8.3392990
  43.7234830  15.8714310   8.8982840  43.3948190  15.0566070   8.5184570
  44.6717130  15.8284120   8.7748530  46.1769440  31.6426350   5.8720410
  45.7172410  32.3942160   5.4978430  45.5481900  30.9232820   5.8135210
  33.0020060  27.7369590   8.2619130  32.2754120  27.1174880   8.1945080
  33.0629210  28.1310200   7.3917210  36.6065160  29.9514590   5.0468540
  37.1230180  29.3401950   4.5216800  37.2562540  30.4543370   5.5379550
  39.3460660  30.8423080   5.8737520  39.6338470  30.5877380   4.9970530
  39.8583880  30.2900440   6.4643090  40.5637670  14.5813280   6.4534030
  39.7809460  15.0558780   6.7330790  40.2700600  13.6768110   6.3447210
  45.1158740  15.2836380   4.4983120  45.5566830  15.2281480   3.6504720
  44.8466330  16.1994390   4.5693300  46.9797310  14.9151620   2.5091940
  46.9185710  13.9712840   2.3622960  47.7589340  15.0231710   3.0545400
  42.9516870  13.6642480   3.2033130  43.5546240  14.2362690   3.6781650
  42.2109860  14.2281920   2.9807030  39.4133020  31.7639180  13.2405720
  40.3400330  31.5283450  13.2841680  39.3983450  32.5911180  12.7591750
  36.5996630  14.4283930  13.0047600  36.3180900  14.9317530  12.2408420
  36.9816330  13.6305680  12.6389730  43.2012090  13.8437510  13.5828070
  43.0877540  14.1632120  14.4779590  44.0181830  14.2450020  13.2865350
  45.9810580  30.9909040  13.0646760  46.7735900  30.4958270  12.8572720
  46.2743730  31.6699180  13.6722370  42.1070240   3.0886490  77.8180260
  42.0264290   2.1741100  77.5471970  41.6934660   3.5853560  77.1119970
  40.2388280   4.8665510  79.6989530  39.4630380   4.3865950  79.9888100
  40.8901210   4.1871160  79.5245690  34.2554110   5.1785320  80.5765290
  33.4238990   4.9234030  80.9761800  34.8635090   5.2496090  81.3123210
  44.2595710   9.2725700  78.4788660  43.7977240   8.5012940  78.8075830
  45.0721260   9.2991770  78.9841110  34.2355370   9.2125410  80.7723310
  34.5383410   8.3223150  80.5933530  34.9798960   9.7695630  80.5445560
  30.6279070   2.7392860  80.2447380  31.1995180   1.9715060  80.2451020
  30.6280610   3.0381620  79.3353990  40.4859020  11.5583710  78.0992650
  39.8670460  12.0141210  77.5287090  41.3410800  11.7135170  77.6982350
  39.6797270   7.5422700  79.7059690  39.6105550   6.6012640  79.5448820
  40.4417130   7.6324110  80.2782260  41.3522370   6.4422950  75.4924560
  40.7339640   6.9072400  74.9287280  41.8645620   7.1350430  75.9094070
  30.7205570   7.1279480  72.8664190  30.3433550   7.6166580  72.1349090
  30.9778640   7.8004760  73.4970720  46.3450820   9.4019030  81.9011980
  45.6614340  10.0718140  81.8928650  46.8845110   9.5999680  81.1356840
  43.8809560  11.2463160  80.6157160  43.8936720  10.8425450  79.7479420
  43.3284780  12.0210450  80.5118590  45.1754980   7.9679380  75.7047330
  45.0651310   7.0253710  75.8296750  45.1723230   8.3295020  76.5910090
  40.7175260   3.5944700  75.0609820  39.7904540   3.5282080  75.2898290
  40.8700080   4.5324830  74.9465060  47.2257100   4.5480220  82.0356010
  46.3975730   4.6173310  81.5606140  47.8207580   5.1334530  81.5671840
  44.7472550   5.1565000  75.5645070  44.1284970   4.8184550  74.9171370
  44.7297000   4.5124760  76.2724260  36.3231900   4.1209440  77.8429550
  35.9188900   3.4086690  77.3475450  36.4095020   3.7762680  78.7317590
  36.7913600   7.8077000  80.0068760  36.4941890   7.2022470  79.3276540
  37.7413420   7.8454310  79.8958120  42.9237250   4.3951810  72.5717820
  43.3630530   3.5574240  72.4255640  43.6365670   5.0281210  72.6581960
  41.0332630   9.3347880  76.5399060  41.4728540  10.0772210  76.1254450
  40.9719520   9.5774450  77.4638020  33.0236530   3.0154420  75.3436200
  32.9034130   3.7416510  74.7317470  32.7137420   2.2457330  74.8664110
  30.6621900   6.1869560  81.1504840  30.7402320   6.3218330  80.2060560
  31.2763580   5.4785450  81.3432960  31.9069530   7.8869750  77.5611020
  31.4997610   8.0284340  76.7064620  32.7982540   7.6029910  77.3582230
  43.7002810  12.3217000  73.8962070  43.5403950  12.0319940  74.7943900
  43.5349520  11.5457130  73.3607300  36.1791190  12.1015530  75.6733690
  36.0033670  11.1851070  75.4601490  35.3246930  12.4602820  75.9131490
  43.4028940   9.8304560  72.4560070  42.7094100   9.8281850  71.7962350
  44.1451800   9.4063880  72.0254240  42.9678870  11.4567270  76.5308560
  43.4235820  10.6756650  76.8447180  43.3071390  12.1674090  77.0749740
  41.7032180   2.7155720  81.1785830  40.9713300   3.2242530  81.5275930
  41.3056520   1.8985700  80.8774610  37.2151220   2.7023140  71.9728380
  36.6468120   2.2541390  71.3464290  37.9240220   3.0615920  71.4393530
  34.7598700   6.6981330  74.2454790  33.9860960   6.1578950  74.0853510
  35.4893330   6.1787940  73.9072550  45.5186680   5.6946690  80.0381180
  46.2385800   6.1901980  79.6477290  45.3168500   5.0164580  79.3935050
  34.8036100   6.3661710  77.8833600  35.3214770   5.5629970  77.8290490
  34.3520120   6.3040850  78.7250430  39.6905600   7.6327990  73.1560900
  40.0321300   8.3770220  72.6604220  38.8618310   7.9459110  73.5185730
  45.9659280   2.7716140  71.9452590  45.8823000   3.2030360  71.0949030
  46.6853470   3.2314490  72.3779410  46.9946530   9.6258400  74.6734720
  46.3522690   8.9714020  74.9478440  46.6077190  10.0313490  73.8975390
  42.5733010   6.9543830  78.5206410  42.9256830   6.3571960  77.8607780
  41.6895340   6.6288060  78.6914660  38.6596290   7.7141520  75.9276820
  39.3467420   8.2610730  76.3084410  37.8728710   8.2582250  75.9626430
  30.7988690   3.3314340  71.4193900  31.6683540   3.6139140  71.7029820
  30.3079010   4.1450210  71.3042710  37.9623500   4.7187550  75.5402180
  38.4186280   5.5292800  75.7662370  37.6111710   4.4010690  76.3720670
  41.5388190   8.2326240  81.4871930  42.1810420   7.5319400  81.6004100
  42.0637540   9.0124680  81.3068820  45.3843910   8.5174860  71.2111070
  45.1581490   7.8005300  71.8035710  44.9940110   8.2687300  70.3732820
  31.1659940  12.5441720  71.9855530  31.5257580  13.1431060  71.3312800
  31.0252280  13.0901610  72.7590560  44.9660160   6.4346800  72.8725230
  44.6781860   6.8959490  73.6603110  45.7612330   5.9744570  73.1409450
  37.1828560   9.9272920  72.8029200  37.1738660  10.6602610  72.1873710
  36.2626920   9.6804500  72.8956160  32.7835200   5.1487810  73.5475960
  32.1763150   5.8886710  73.5571260  33.2584550   5.2387170  72.7214160
  40.1688160   9.9901160  71.4654390  40.2700140   9.7865150  70.5356370
  39.2689900   9.7359440  71.6702170  38.8106270  12.5087480  76.1602060
  39.0647770  12.4708870  75.2381430  37.8618750  12.3820810  76.1530310
  44.8158850   3.4279360  77.7360570  43.8748990   3.4429590  77.9108260
  45.1302920   2.6415320  78.1820870  34.7940490   5.1098960  71.2964530
  35.5603760   4.9980320  71.8589960  34.8715180   4.4136930  70.6441300
  46.8184430  10.5988210  79.4114830  46.9431850  11.4219380  79.8838640
  47.6849990  10.3878940  79.0638980  34.2901960  12.6919420  79.0831960
  35.0264440  12.1434880  79.3540530  34.6742880  13.5575430  78.9437950
  31.1747440   8.7592990  74.9573470  30.2487220   9.0014130  74.9478880
  31.6403870   9.5867250  74.8358220  37.4004270  11.8649730  70.9057530
  38.1932880  12.1538560  70.4539320  36.8808620  11.4341900  70.2270010
  46.4534440  11.0919860  72.3294270  46.1675950  10.6785000  71.5148450
  46.2553990  12.0207570  72.2094790  37.9181670   7.0853140  70.7699880
  37.8132310   6.4705490  71.4961260  37.7505890   6.5619030  69.9862890
  41.1584400   6.1473170  71.3741870  40.6094500   6.5942470  72.0184610
  41.7803660   5.6422420  71.8979540  36.8259520   5.1064090  73.2707170
  37.2475940   4.9403960  74.1138560  36.9510360   4.2964320  72.7762310
  39.3387160   4.1301700  70.5184270  39.8592820   3.4150720  70.1525420
  39.9855560   4.7687570  70.8184780  39.9035190  12.2113310  72.8086010
  40.7985980  12.5498280  72.8304770  39.9352820  11.4892720  72.1810290
  33.5431350   7.5840360  71.0373010  33.9806220   8.1270030  71.6930590
  34.0279080   6.7587310  71.0469350  30.7577150  10.3729390  78.4893270
  31.0880160   9.5050450  78.2571910  31.1868150  10.5787910  79.3198230
  35.3539070   8.7038400  76.1495240  35.0534610   8.5803370  77.0499150
  35.2476560   7.8446990  75.7410970  48.1230990   8.4834800  70.8521920
  47.2923950   8.5511450  71.3229150  48.3002820   9.3738920  70.5488780
  47.5787450   5.2282280  73.3556120  48.3406360   5.7978930  73.4615810
  47.5941820   4.6609480  74.1264430  31.0791790   3.7520210  77.5863780
  30.4240630   3.4831850  76.9423480  31.9169740   3.6424690  77.1365760
  48.5847420   6.0832380  78.1998050  48.9556250   5.2999700  77.7934020
  49.2249350   6.7721480  78.0215350  47.6306620   5.5216650  70.5128640
  47.9055460   6.4295530  70.3847860  47.4417360   5.4579180  71.4490630
  47.5271960   3.4585640  75.5058070  47.1515560   2.6913570  75.0739360
  46.7975080   3.8408340  75.9933000  45.6257230  12.2187560  77.1396640
  46.2216300  11.8972130  76.4631060  45.8835380  11.7459380  77.9309910
  46.1769440  12.8682860  80.9694370  45.7172410  13.6198670  80.5952390
  45.5481900  12.1489330  80.9109170  36.6065160  11.1771100  80.1442500
  37.1230180  10.5658460  79.6190760  37.2562540  11.6799880  80.6353510
  39.3460660  12.0679590  80.9711480  39.6338470  11.8133890  80.0944490
  39.8583880  11.5156950  81.5617050  31.2850060  12.2800490  76.5689850
  31.1172100  11.6471170  77.2671740  30.4184570  12.4859890  76.2184040
  32.8912760  10.9733720  74.0139990  32.3660380  11.3541750  73.3101950
  32.8157340  11.5984490  74.7349700  47.6478080  12.5321260  75.3353930
  47.8230270  11.8459000  74.6914850  46.9499650  13.0568310  74.9430600
  35.4905730  12.9216100  72.8889240  36.2224550  12.6375380  72.3413130
  35.7499400  12.6829380  73.7788620  34.6520520   9.0380830  72.8935570
  34.0229400   9.5065930  73.4421400  34.7668350   8.1930050  73.3281760
  42.1070240   3.0886490  59.0436770  42.0264290   2.1741100  58.7728480
  41.6934660   3.5853560  58.3376480  40.2388280   4.8665510  60.9246040
  39.4630380   4.3865950  61.2144610  40.8901210   4.1871160  60.7502200
  34.2554110   5.1785320  61.8021800  33.4238990   4.9234030  62.2018310
  34.8635090   5.2496090  62.5379720  44.2595710   9.2725700  59.7045170
  43.7977240   8.5012940  60.0332340  45.0721260   9.2991770  60.2097620
  34.2355370   9.2125410  61.9979820  34.5383410   8.3223150  61.8190040
  34.9798960   9.7695630  61.7702070  30.6279070   2.7392860  61.4703890
  31.1995180   1.9715060  61.4707530  30.6280610   3.0381620  60.5610500
  40.4859020  11.5583710  59.3249160  39.8670460  12.0141210  58.7543600
  41.3410800  11.7135170  58.9238860  39.6797270   7.5422700  60.9316200
  39.6105550   6.6012640  60.7705330  40.4417130   7.6324110  61.5038770
  41.3522370   6.4422950  56.7181070  40.7339640   6.9072400  56.1543790
  41.8645620   7.1350430  57.1350580  36.2154130   5.9698820  63.3964670
  35.8823510   6.5967740  64.0385740  36.3920810   6.4960700  62.6166340
  35.4273230   7.9379620  65.2113850  36.0447230   8.6130700  64.9298300
  34.5666350   8.3467600  65.1201350  30.7205570   7.1279480  54.0920700
  30.3433550   7.6166580  53.3605600  30.9778640   7.8004760  54.7227230
  46.3450820   9.4019030  63.1268490  45.6614340  10.0718140  63.1185160
  46.8845110   9.5999680  62.3613350  43.8809560  11.2463160  61.8413670
  43.8936720  10.8425450  60.9735930  43.3284780  12.0210450  61.7375100
  45.1754980   7.9679380  56.9303840  45.0651310   7.0253710  57.0553260
  45.1723230   8.3295020  57.8166600  43.2795000   6.1493000  63.1696280
  43.6963790   5.9353110  62.3349740  44.0034820   6.4065790  63.7404900
  40.7175260   3.5944700  56.2866330  39.7904540   3.5282080  56.5154800
  40.8700080   4.5324830  56.1721570  47.2257100   4.5480220  63.2612520
  46.3975730   4.6173310  62.7862650  47.8207580   5.1334530  62.7928350
  44.7472550   5.1565000  56.7901580  44.1284970   4.8184550  56.1427880
  44.7297000   4.5124760  57.4980770  36.3231900   4.1209440  59.0686060
  35.9188900   3.4086690  58.5731960  36.4095020   3.7762680  59.9574100
  36.7913600   7.8077000  61.2325270  36.4941890   7.2022470  60.5533050
  37.7413420   7.8454310  61.1214630  44.8799210  11.3808870  64.8948370
  44.4029770  12.1881060  64.7020980  44.1961000  10.7287200  65.0474580
  35.8832030   7.5458690  67.8833070  34.9860560   7.7698660  68.1306470
  35.9084900   7.6693630  66.9344470  42.9237250   4.3951810  53.7974330
  43.3630530   3.5574240  53.6512150  43.6365670   5.0281210  53.8838470
  34.7103250   4.4172010  66.4590440  34.5711020   5.2894810  66.8277840
  33.8284610   4.0744820  66.3138380  41.0332630   9.3347880  57.7655570
  41.4728540  10.0772210  57.3510960  40.9719520   9.5774450  58.6894530
  36.5083600  10.3593710  68.6675590  36.4799030  10.7636660  67.8004020
  36.3448570   9.4304070  68.5047190  33.0236530   3.0154420  56.5692710
  32.9034130   3.7416510  55.9573980  32.7137420   2.2457330  56.0920620
  48.4598420  11.1420810  69.9639760  48.9358140  11.6203700  70.6428840
  49.0805580  11.0738300  69.2385260  30.6621900   6.1869560  62.3761350
  30.7402320   6.3218330  61.4317070  31.2763580   5.4785450  62.5689470
  31.9069530   7.8869750  58.7867530  31.4997610   8.0284340  57.9321130
  32.7982540   7.6029910  58.5838740  47.8631670   8.3333660  67.1239770
  47.9894730   8.0945540  66.2056950  47.9053050   7.5018200  67.5961850
  41.7248410  12.0361660  65.6934580  42.2393080  11.9469670  66.4957010
  40.8817490  12.3821360  65.9862490  43.7002810  12.3217000  55.1218580
  43.5403950  12.0319940  56.0200410  43.5349520  11.5457130  54.5863810
  36.1791190  12.1015530  56.8990200  36.0033670  11.1851070  56.6858000
  35.3246930  12.4602820  57.1388000  43.4028940   9.8304560  53.6816580
  42.7094100   9.8281850  53.0218860  44.1451800   9.4063880  53.2510750
  42.9678870  11.4567270  57.7565070  43.4235820  10.6756650  58.0703690
  43.3071390  12.1674090  58.3006250  30.7181420   7.2283730  64.9155810
  30.8812460   6.7589090  64.0975180  31.1833870   6.7207290  65.5804650
  41.7032180   2.7155720  62.4042340  40.9713300   3.2242530  62.7532440
  41.3056520   1.8985700  62.1031120  37.2151220   2.7023140  53.1984890
  36.6468120   2.2541390  52.5720800  37.9240220   3.0615920  52.6650040
  32.2920400   6.6035160  67.0751620  31.9075190   5.9628830  67.6734580
  32.6032590   7.3071280  67.6446350  38.4417540   3.4511700  62.5560240
  38.8087670   2.9770270  63.3021580  38.2522600   4.3253270  62.8968580
  36.2316910   2.4920340  64.8744450  35.9273980   3.3712320  65.0994810
  37.1863370   2.5520130  64.9101890  34.7598700   6.6981330  55.4711300
  33.9860960   6.1578950  55.3110020  35.4893330   6.1787940  55.1329060
  45.5186680   5.6946690  61.2637690  46.2385800   6.1901980  60.8733800
  45.3168500   5.0164580  60.6191560  40.9005480   5.7655750  67.1506690
  40.8342790   4.8451420  66.8964280  40.2710620   5.8631190  67.8651330
  34.8036100   6.3661710  59.1090110  35.3214770   5.5629970  59.0547000
  34.3520120   6.3040850  59.9506940  39.6905600   7.6327990  54.3817410
  40.0321300   8.3770220  53.8860730  38.8618310   7.9459110  54.7442240
  32.2880640   3.3323080  66.0215810  31.9295580   3.9976930  66.6089150
  31.9935200   2.5006630  66.3928430  35.4893760   3.7907320  68.9055360
  35.1893900   3.9364500  68.0083180  36.2605000   3.2312610  68.8128750
  40.8322210   8.5876320  66.9010490  40.8466750   7.6557280  66.6829400
  40.1247310   8.6736080  67.5400260  45.9659280   2.7716140  53.1709100
  45.8823000   3.2030360  52.3205540  46.6853470   3.2314490  53.6035920
  47.0433420   5.2283660  66.2479070  46.3181610   5.8212440  66.0508460
  47.5708880   5.2207200  65.4492440  46.9946530   9.6258400  55.8991230
  46.3522690   8.9714020  56.1734950  46.6077190  10.0313490  55.1231900
  42.5733010   6.9543830  59.7462920  42.9256830   6.3571960  59.0864290
  41.6895340   6.6288060  59.9171170  38.6596290   7.7141520  57.1533330
  39.3467420   8.2610730  57.5340920  37.8728710   8.2582250  57.1882940
  30.7988690   3.3314340  52.6450410  31.6683540   3.6139140  52.9286330
  30.3079010   4.1450210  52.5299220  37.9623500   4.7187550  56.7658690
  38.4186280   5.5292800  56.9918880  37.6111710   4.4010690  57.5977180
  40.2656110  10.2293890  63.9950990  40.9098330  10.4353270  64.6724410
  40.6285550   9.4682290  63.5421840  41.5388190   8.2326240  62.7128440
  42.1810420   7.5319400  62.8260610  42.0637540   9.0124680  62.5325330
  45.3843910   8.5174860  52.4367580  45.1581490   7.8005300  53.0292220
  44.9940110   8.2687300  51.5989330  43.3125810   9.0321140  65.9164500
  43.6482050   9.6187830  66.5942420  42.3926150   8.9013850  66.1462290
  31.1659940  12.5441720  53.2112040  31.5257580  13.1431060  52.5569310
  31.0252280  13.0901610  53.9847070  44.9660160   6.4346800  54.0981740
  44.6781860   6.8959490  54.8859620  45.7612330   5.9744570  54.3665960
  31.1501800  10.8096580  67.6854440  31.2592920   9.8691320  67.5449830
  30.4982360  11.0751330  67.0368170  39.1414390   9.0812470  69.0852560
  38.8211260   8.3621710  69.6298250  38.4672750   9.7567540  69.1588620
  37.1828560   9.9272920  54.0285710  37.1738660  10.6602610  53.4130220
  36.2626920   9.6804500  54.1212670  32.7835200   5.1487810  54.7732470
  32.1763150   5.8886710  54.7827770  33.2584550   5.2387170  53.9470670
  40.1688160   9.9901160  52.6910900  40.2700140   9.7865150  51.7612880
  39.2689900   9.7359440  52.8958680  38.8106270  12.5087480  57.3858570
  39.0647770  12.4708870  56.4637940  37.8618750  12.3820810  57.3786820
  44.8158850   3.4279360  58.9617080  43.8748990   3.4429590  59.1364770
  45.1302920   2.6415320  59.4077380  34.7940490   5.1098960  52.5221040
  35.5603760   4.9980320  53.0846470  34.8715180   4.4136930  51.8697810
  46.8184430  10.5988210  60.6371340  46.9431850  11.4219380  61.1095150
  47.6849990  10.3878940  60.2895490  34.2901960  12.6919420  60.3088470
  35.0264440  12.1434880  60.5797040  34.6742880  13.5575430  60.1694460
  31.1747440   8.7592990  56.1829980  30.2487220   9.0014130  56.1735390
  31.6403870   9.5867250  56.0614730  33.2960240  11.8765490  69.4974050
  34.0972970  12.1977540  69.9109450  32.7812060  11.5161070  70.2193960
  37.4004270  11.8649730  52.1314040  38.1932880  12.1538560  51.6795830
  36.8808620  11.4341900  51.4526520  42.1324870   7.9845360  69.4449460
  41.5263030   8.0076960  68.7045210  41.8278980   7.2528400  69.9816710
  43.5625240  11.7125650  68.0558870  44.5146990  11.6283670  68.0059110
  43.4153460  12.3767360  68.7292660  46.4534440  11.0919860  53.5550780
  46.1675950  10.6785000  52.7404960  46.2553990  12.0207570  53.4351300
  31.0158050   4.3638950  68.4410100  31.5197070   3.7846230  69.0126330
  30.2765470   4.6479180  68.9786470  37.9181670   7.0853140  51.9956390
  37.8132310   6.4705490  52.7217770  37.7505890   6.5619030  51.2119400
  38.0695990   5.7709940  67.9745620  37.3041660   6.3394940  67.8900290
  38.2511950   5.4786150  67.0813850  41.1584400   6.1473170  52.5998380
  40.6094500   6.5942470  53.2441120  41.7803660   5.6422420  53.1236050
  45.2119340   7.5015270  68.5320640  45.9528810   7.8391030  68.0288100
  44.4492020   7.6707330  67.9790410  33.0481130   2.5068540  69.3360170
  33.0886470   2.2082410  70.2445400  33.9026630   2.9076150  69.1767690
  36.8259520   5.1064090  54.4963680  37.2475940   4.9403960  55.3395070
  36.9510360   4.2964320  54.0018820  39.3387160   4.1301700  51.7440780
  39.8592820   3.4150720  51.3781930  39.9855560   4.7687570  52.0441290
  43.8865000   5.5530100  67.0675850  44.3006020   5.7075180  67.9166270
  42.9516000   5.6785320  67.2301630  44.3587170   2.8926260  69.0715000
  44.9407940   2.1378580  68.9835480  44.5348940   3.4233700  68.2946480
  38.6480230   5.5050580  65.0371780  39.0668340   6.3483310  64.8648020
  37.7288860   5.6422620  64.8078560  40.9844130   3.2366760  66.4209620
  41.1040340   2.6407900  67.1604460  41.8438130   3.2736450  66.0010920
  43.3232030   3.7903950  64.9972130  42.7967250   4.3146570  64.3937270
  43.6663370   4.4231340  65.6281860  36.4987650  11.8103590  66.1529510
  35.9608740  12.5349650  65.8338210  36.7521610  11.3333930  65.3626850
  39.3549860  13.0454800  66.4116160  39.2808560  13.9489940  66.7188530
  38.4528700  12.7266700  66.3838230  39.9035190  12.2113310  54.0342520
  40.7985980  12.5498280  54.0561280  39.9352820  11.4892720  53.4066800
  33.5431350   7.5840360  52.2629520  33.9806220   8.1270030  52.9187100
  34.0279080   6.7587310  52.2725860  30.7577150  10.3729390  59.7149780
  31.0880160   9.5050450  59.4828420  31.1868150  10.5787910  60.5454740
  35.3539070   8.7038400  57.3751750  35.0534610   8.5803370  58.2755660
  35.2476560   7.8446990  56.9667480  31.2467360  11.2399980  62.4531410
  30.8098350  11.4200780  63.2855560  31.8145040  11.9974600  62.3113130
  46.8829540  10.7416980  66.7408720  46.2831530  10.8009540  65.9972640
  47.0123440   9.8021960  66.8705570  48.1230990   8.4834800  52.0778430
  47.2923950   8.5511450  52.5485660  48.3002820   9.3738920  51.7745290
  47.5787450   5.2282280  54.5812630  48.3406360   5.7978930  54.6872320
  47.5941820   4.6609480  55.3520940  31.0791790   3.7520210  58.8120290
  30.4240630   3.4831850  58.1679990  31.9169740   3.6424690  58.3622270
  48.5847420   6.0832380  59.4254560  48.9556250   5.2999700  59.0190530
  49.2249350   6.7721480  59.2471860  45.5681180   7.4668960  64.8384880
  44.7541020   7.8966120  65.1010670  45.9755380   8.0787370  64.2253930
  47.6306620   5.5216650  51.7385150  47.9055460   6.4295530  51.6104370
  47.4417360   5.4579180  52.6747140  47.5271960   3.4585640  56.7314580
  47.1515560   2.6913570  56.2995870  46.7975080   3.8408340  57.2189510
  32.1167720   4.1372780  63.3523630  32.4840760   4.0500180  64.2319650
  31.5478540   3.3739330  63.2530490  46.9171580   2.6057160  66.3654100
  46.6857670   2.3769910  65.4652050  47.1776130   3.5256710  66.3198990
  46.9812640   1.7683000  63.5541370  46.0315350   1.7346540  63.6686360
  47.1625650   2.6783110  63.3191140  45.6257230  12.2187560  58.3653150
  46.2216300  11.8972130  57.6887570  45.8835380  11.7459380  59.1566420
  33.5319800   8.6505470  68.5143780  33.4889430   8.2798380  69.3958240
  33.6630810   9.5883040  68.6545600  37.2325830  10.2065060  64.1153500
  36.9917190  10.4739620  63.2284020  38.1728470  10.3770790  64.1704360
  48.4929990  12.2259440  64.9164140  47.9988270  12.6228310  64.1991270
  47.8843280  11.6008650  65.3101420  33.3707830  11.5967720  65.6341560
  32.7768150  11.4652420  66.3731600  33.3631670  10.7605860  65.1683660
  46.1769440  12.8682860  62.1950880  45.7172410  13.6198670  61.8208900
  45.5481900  12.1489330  62.1365680  33.0020060   8.9626100  64.5849600
  32.2754120   8.3431390  64.5175550  33.0629210   9.3566710  63.7147680
  36.6065160  11.1771100  61.3699010  37.1230180  10.5658460  60.8447270
  37.2562540  11.6799880  61.8610020  39.3460660  12.0679590  62.1967990
  39.6338470  11.8133890  61.3201000  39.8583880  11.5156950  62.7873560
  31.2850060  12.2800490  57.7946360  31.1172100  11.6471170  58.4928250
  30.4184570  12.4859890  57.4440550  32.8912760  10.9733720  55.2396500
  32.3660380  11.3541750  54.5358460  32.8157340  11.5984490  55.9606210
  39.4133020  12.9895690  69.5636190  40.3400330  12.7539960  69.6072150
  39.3983450  13.8167690  69.0822220  35.4905730  12.9216100  54.1145750
  36.2224550  12.6375380  53.5669640  35.7499400  12.6829380  55.0045130
  34.6520520   9.0380830  54.1192080  34.0229400   9.5065930  54.6677910
  34.7668350   8.1930050  54.5538270  45.9810580  12.2165550  69.3877230
  46.7735900  11.7214780  69.1803190  46.2743730  12.8955690  69.9952840
  42.1070240   3.0886490  40.2693280  42.0264290   2.1741100  39.9984990
  41.6934660   3.5853560  39.5632990  40.2388280   4.8665510  42.1502550
  39.4630380   4.3865950  42.4401120  40.8901210   4.1871160  41.9758710
  34.2554110   5.1785320  43.0278310  33.4238990   4.9234030  43.4274820
  34.8635090   5.2496090  43.7636230  44.2595710   9.2725700  40.9301680
  43.7977240   8.5012940  41.2588850  45.0721260   9.2991770  41.4354130
  34.2355370   9.2125410  43.2236330  34.5383410   8.3223150  43.0446550
  34.9798960   9.7695630  42.9958580  30.6279070   2.7392860  42.6960400
  31.1995180   1.9715060  42.6964040  30.6280610   3.0381620  41.7867010
  40.4859020  11.5583710  40.5505670  39.8670460  12.0141210  39.9800110
  41.3410800  11.7135170  40.1495370  39.6797270   7.5422700  42.1572710
  39.6105550   6.6012640  41.9961840  40.4417130   7.6324110  42.7295280
  41.3522370   6.4422950  37.9437580  40.7339640   6.9072400  37.3800300
  41.8645620   7.1350430  38.3607090  36.2154130   5.9698820  44.6221180
  35.8823510   6.5967740  45.2642250  36.3920810   6.4960700  43.8422850
  35.4273230   7.9379620  46.4370360  36.0447230   8.6130700  46.1554810
  34.5666350   8.3467600  46.3457860  30.7205570   7.1279480  35.3177210
  30.3433550   7.6166580  34.5862110  30.9778640   7.8004760  35.9483740
  46.3450820   9.4019030  44.3525000  45.6614340  10.0718140  44.3441670
  46.8845110   9.5999680  43.5869860  45.1754980   7.9679380  38.1560350
  45.0651310   7.0253710  38.2809770  45.1723230   8.3295020  39.0423110
  43.2795000   6.1493000  44.3952790  43.6963790   5.9353110  43.5606250
  44.0034820   6.4065790  44.9661410  40.7175260   3.5944700  37.5122840
  39.7904540   3.5282080  37.7411310  40.8700080   4.5324830  37.3978080
  47.2257100   4.5480220  44.4869030  46.3975730   4.6173310  44.0119160
  47.8207580   5.1334530  44.0184860  44.7472550   5.1565000  38.0158090
  44.1284970   4.8184550  37.3684390  44.7297000   4.5124760  38.7237280
  36.3231900   4.1209440  40.2942570  35.9188900   3.4086690  39.7988470
  36.4095020   3.7762680  41.1830610  36.7913600   7.8077000  42.4581780
  36.4941890   7.2022470  41.7789560  37.7413420   7.8454310  42.3471140
  44.8799210  11.3808870  46.1204880  44.4029770  12.1881060  45.9277490
  44.1961000  10.7287200  46.2731090  35.8832030   7.5458690  49.1089580
  34.9860560   7.7698660  49.3562980  35.9084900   7.6693630  48.1600980
  42.9237250   4.3951810  35.0230840  43.3630530   3.5574240  34.8768660
  43.6365670   5.0281210  35.1094980  34.7103250   4.4172010  47.6846950
  34.5711020   5.2894810  48.0534350  33.8284610   4.0744820  47.5394890
  41.0332630   9.3347880  38.9912080  41.4728540  10.0772210  38.5767470
  40.9719520   9.5774450  39.9151040  36.5083600  10.3593710  49.8932100
  36.4799030  10.7636660  49.0260530  36.3448570   9.4304070  49.7303700
  33.0236530   3.0154420  37.7949220  32.9034130   3.7416510  37.1830490
  32.7137420   2.2457330  37.3177130  48.4598420  11.1420810  51.1896270
  48.9358140  11.6203700  51.8685350  49.0805580  11.0738300  50.4641770
  30.6621900   6.1869560  43.6017860  30.7402320   6.3218330  42.6573580
  31.2763580   5.4785450  43.7945980  31.9069530   7.8869750  40.0124040
  31.4997610   8.0284340  39.1577640  32.7982540   7.6029910  39.8095250
  47.8631670   8.3333660  48.3496280  47.9894730   8.0945540  47.4313460
  47.9053050   7.5018200  48.8218360  43.7002810  12.3217000  36.3475090
  43.5403950  12.0319940  37.2456920  43.5349520  11.5457130  35.8120320
  36.1791190  12.1015530  38.1246710  36.0033670  11.1851070  37.9114510
  35.3246930  12.4602820  38.3644510  43.4028940   9.8304560  34.9073090
  42.7094100   9.8281850  34.2475370  44.1451800   9.4063880  34.4767260
  42.9678870  11.4567270  38.9821580  43.4235820  10.6756650  39.2960200
  43.3071390  12.1674090  39.5262760  30.7181420   7.2283730  46.1412320
  30.8812460   6.7589090  45.3231690  31.1833870   6.7207290  46.8061160
  41.7032180   2.7155720  43.6298850  40.9713300   3.2242530  43.9788950
  41.3056520   1.8985700  43.3287630  37.2151220   2.7023140  34.4241400
  36.6468120   2.2541390  33.7977310  37.9240220   3.0615920  33.8906550
  32.2920400   6.6035160  48.3008130  31.9075190   5.9628830  48.8991090
  32.6032590   7.3071280  48.8702860  38.4417540   3.4511700  43.7816750
  38.8087670   2.9770270  44.5278090  38.2522600   4.3253270  44.1225090
  36.2316910   2.4920340  46.1000960  35.9273980   3.3712320  46.3251320
  37.1863370   2.5520130  46.1358400  34.7598700   6.6981330  36.6967810
  33.9860960   6.1578950  36.5366530  35.4893330   6.1787940  36.3585570
  45.5186680   5.6946690  42.4894200  46.2385800   6.1901980  42.0990310
  45.3168500   5.0164580  41.8448070  40.9005480   5.7655750  48.3763200
  40.8342790   4.8451420  48.1220790  40.2710620   5.8631190  49.0907840
  34.8036100   6.3661710  40.3346620  35.3214770   5.5629970  40.2803510
  34.3520120   6.3040850  41.1763450  39.6905600   7.6327990  35.6073920
  40.0321300   8.3770220  35.1117240  38.8618310   7.9459110  35.9698750
  32.2880640   3.3323080  47.2472320  31.9295580   3.9976930  47.8345660
  31.9935200   2.5006630  47.6184940  35.4893760   3.7907320  50.1311870
  35.1893900   3.9364500  49.2339690  36.2605000   3.2312610  50.0385260
  40.8322210   8.5876320  48.1267000  40.8466750   7.6557280  47.9085910
  40.1247310   8.6736080  48.7656770  45.9659280   2.7716140  34.3965610
  45.8823000   3.2030360  33.5462050  46.6853470   3.2314490  34.8292430
  47.0433420   5.2283660  47.4735580  46.3181610   5.8212440  47.2764970
  47.5708880   5.2207200  46.6748950  46.9946530   9.6258400  37.1247740
  46.3522690   8.9714020  37.3991460  46.6077190  10.0313490  36.3488410
  42.5733010   6.9543830  40.9719430  42.9256830   6.3571960  40.3120800
  41.6895340   6.6288060  41.1427680  38.6596290   7.7141520  38.3789840
  39.3467420   8.2610730  38.7597430  37.8728710   8.2582250  38.4139450
  30.7988690   3.3314340  33.8706920  31.6683540   3.6139140  34.1542840
  30.3079010   4.1450210  33.7555730  37.9623500   4.7187550  37.9915200
  38.4186280   5.5292800  38.2175390  37.6111710   4.4010690  38.8233690
  41.5388190   8.2326240  43.9384950  42.1810420   7.5319400  44.0517120
  42.0637540   9.0124680  43.7581840  45.3843910   8.5174860  33.6624090
  45.1581490   7.8005300  34.2548730  44.9940110   8.2687300  32.8245840
  43.3125810   9.0321140  47.1421010  43.6482050   9.6187830  47.8198930
  42.3926150   8.9013850  47.3718800  31.1659940  12.5441720  34.4368550
  31.5257580  13.1431060  33.7825820  31.0252280  13.0901610  35.2103580
  44.9660160   6.4346800  35.3238250  44.6781860   6.8959490  36.1116130
  45.7612330   5.9744570  35.5922470  31.1501800  10.8096580  48.9110950
  31.2592920   9.8691320  48.7706340  30.4982360  11.0751330  48.2624680
  39.1414390   9.0812470  50.3109070  38.8211260   8.3621710  50.8554760
  38.4672750   9.7567540  50.3845130  37.1828560   9.9272920  35.2542220
  37.1738660  10.6602610  34.6386730  36.2626920   9.6804500  35.3469180
  32.7835200   5.1487810  35.9988980  32.1763150   5.8886710  36.0084280
  33.2584550   5.2387170  35.1727180  40.1688160   9.9901160  33.9167410
  40.2700140   9.7865150  32.9869390  39.2689900   9.7359440  34.1215190
  38.8106270  12.5087480  38.6115080  39.0647770  12.4708870  37.6894450
  37.8618750  12.3820810  38.6043330  44.8158850   3.4279360  40.1873590
  43.8748990   3.4429590  40.3621280  45.1302920   2.6415320  40.6333890
  34.7940490   5.1098960  33.7477550  35.5603760   4.9980320  34.3102980
  34.8715180   4.4136930  33.0954320  34.2901960  12.6919420  41.5344980
  35.0264440  12.1434880  41.8053550  34.6742880  13.5575430  41.3950970
  31.1747440   8.7592990  37.4086490  30.2487220   9.0014130  37.3991900
  31.6403870   9.5867250  37.2871240  33.2960240  11.8765490  50.7230560
  34.0972970  12.1977540  51.1365960  32.7812060  11.5161070  51.4450470
  37.4004270  11.8649730  33.3570550  38.1932880  12.1538560  32.9052340
  36.8808620  11.4341900  32.6783030  42.1324870   7.9845360  50.6705970
  41.5263030   8.0076960  49.9301720  41.8278980   7.2528400  51.2073220
  43.5625240  11.7125650  49.2815380  44.5146990  11.6283670  49.2315620
  43.4153460  12.3767360  49.9549170  46.4534440  11.0919860  34.7807290
  46.1675950  10.6785000  33.9661470  46.2553990  12.0207570  34.6607810
  31.0158050   4.3638950  49.6666610  31.5197070   3.7846230  50.2382840
  30.2765470   4.6479180  50.2042980  37.9181670   7.0853140  33.2212900
  37.8132310   6.4705490  33.9474280  37.7505890   6.5619030  32.4375910
  38.0695990   5.7709940  49.2002130  37.3041660   6.3394940  49.1156800
  38.2511950   5.4786150  48.3070360  41.1584400   6.1473170  33.8254890
  40.6094500   6.5942470  34.4697630  41.7803660   5.6422420  34.3492560
  45.2119340   7.5015270  49.7577150  45.9528810   7.8391030  49.2544610
  44.4492020   7.6707330  49.2046920  33.0481130   2.5068540  50.5616680
  33.0886470   2.2082410  51.4701910  33.9026630   2.9076150  50.4024200
  36.8259520   5.1064090  35.7220190  37.2475940   4.9403960  36.5651580
  36.9510360   4.2964320  35.2275330  39.3387160   4.1301700  32.9697290
  39.8592820   3.4150720  32.6038440  39.9855560   4.7687570  33.2697800
  43.8865000   5.5530100  48.2932360  44.3006020   5.7075180  49.1422780
  42.9516000   5.6785320  48.4558140  44.3587170   2.8926260  50.2971510
  44.9407940   2.1378580  50.2091990  44.5348940   3.4233700  49.5202990
  38.6480230   5.5050580  46.2628290  39.0668340   6.3483310  46.0904530
  37.7288860   5.6422620  46.0335070  40.9844130   3.2366760  47.6466130
  41.1040340   2.6407900  48.3860970  41.8438130   3.2736450  47.2267430
  43.3232030   3.7903950  46.2228640  42.7967250   4.3146570  45.6193780
  43.6663370   4.4231340  46.8538370  36.4987650  11.8103590  47.3786020
  35.9608740  12.5349650  47.0594720  36.7521610  11.3333930  46.5883360
  39.9035190  12.2113310  35.2599030  40.7985980  12.5498280  35.2817790
  39.9352820  11.4892720  34.6323310  33.5431350   7.5840360  33.4886030
  33.9806220   8.1270030  34.1443610  34.0279080   6.7587310  33.4982370
  30.7577150  10.3729390  40.9406290  31.0880160   9.5050450  40.7084930
  31.1868150  10.5787910  41.7711250  35.3539070   8.7038400  38.6008260
  35.0534610   8.5803370  39.5012170  35.2476560   7.8446990  38.1923990
  31.2467360  11.2399980  43.6787920  30.8098350  11.4200780  44.5112070
  31.8145040  11.9974600  43.5369640  46.8829540  10.7416980  47.9665230
  46.2831530  10.8009540  47.2229150  47.0123440   9.8021960  48.0962080
  48.1230990   8.4834800  33.3034940  47.2923950   8.5511450  33.7742170
  48.3002820   9.3738920  33.0001800  47.5787450   5.2282280  35.8069140
  48.3406360   5.7978930  35.9128830  47.5941820   4.6609480  36.5777450
  31.0791790   3.7520210  40.0376800  30.4240630   3.4831850  39.3936500
  31.9169740   3.6424690  39.5878780  48.5847420   6.0832380  40.6511070
  48.9556250   5.2999700  40.2447040  49.2249350   6.7721480  40.4728370
  45.5681180   7.4668960  46.0641390  44.7541020   7.8966120  46.3267180
  45.9755380   8.0787370  45.4510440  47.6306620   5.5216650  32.9641660
  47.9055460   6.4295530  32.8360880  47.4417360   5.4579180  33.9003650
  47.5271960   3.4585640  37.9571090  47.1515560   2.6913570  37.5252380
  46.7975080   3.8408340  38.4446020  32.1167720   4.1372780  44.5780140
  32.4840760   4.0500180  45.4576160  31.5478540   3.3739330  44.4787000
  46.9171580   2.6057160  47.5910610  46.6857670   2.3769910  46.6908560
  47.1776130   3.5256710  47.5455500  46.9812640   1.7683000  44.7797880
  46.0315350   1.7346540  44.8942870  47.1625650   2.6783110  44.5447650
  33.5319800   8.6505470  49.7400290  33.4889430   8.2798380  50.6214750
  33.6630810   9.5883040  49.8802110  37.2325830  10.2065060  45.3410010
  36.9917190  10.4739620  44.4540530  38.1728470  10.3770790  45.3960870
  48.4929990  12.2259440  46.1420650  47.9988270  12.6228310  45.4247780
  47.8843280  11.6008650  46.5357930  33.3707830  11.5967720  46.8598070
  32.7768150  11.4652420  47.5988110  33.3631670  10.7605860  46.3940170
  33.0020060   8.9626100  45.8106110  32.2754120   8.3431390  45.7432060
  33.0629210   9.3566710  44.9404190  36.6065160  11.1771100  42.5955520
  37.1230180  10.5658460  42.0703780  37.2562540  11.6799880  43.0866530
  31.2850060  12.2800490  39.0202870  31.1172100  11.6471170  39.7184760
  30.4184570  12.4859890  38.6697060  32.8912760  10.9733720  36.4653010
  32.3660380  11.3541750  35.7614970  32.8157340  11.5984490  37.1862720
  39.4133020  12.9895690  50.7892700  40.3400330  12.7539960  50.8328660
  39.3983450  13.8167690  50.3078730  47.6478080  12.5321260  37.7866950
  47.8230270  11.8459000  37.1427870  46.9499650  13.0568310  37.3943620
  35.4905730  12.9216100  35.3402260  36.2224550  12.6375380  34.7926150
  35.7499400  12.6829380  36.2301640  34.6520520   9.0380830  35.3448590
  34.0229400   9.5065930  35.8934420  34.7668350   8.1930050  35.7794780
  45.9810580  12.2165550  50.6133740  46.7735900  11.7214780  50.4059700
  46.2743730  12.8955690  51.2209350  42.1070240   3.0886490  21.4949790
  42.0264290   2.1741100  21.2241500  41.6934660   3.5853560  20.7889500
  40.2388280   4.8665510  23.3759060  39.4630380   4.3865950  23.6657630
  40.8901210   4.1871160  23.2015220  34.2554110   5.1785320  24.2534820
  33.4238990   4.9234030  24.6531330  34.8635090   5.2496090  24.9892740
  44.2595710   9.2725700  22.1558190  43.7977240   8.5012940  22.4845360
  45.0721260   9.2991770  22.6610640  34.2355370   9.2125410  24.4492840
  34.5383410   8.3223150  24.2703060  34.9798960   9.7695630  24.2215090
  30.6279070   2.7392860  23.9216910  31.1995180   1.9715060  23.9220550
  30.6280610   3.0381620  23.0123520  40.4859020  11.5583710  21.7762180
  39.8670460  12.0141210  21.2056620  41.3410800  11.7135170  21.3751880
  39.6797270   7.5422700  23.3829220  39.6105550   6.6012640  23.2218350
  40.4417130   7.6324110  23.9551790  41.3522370   6.4422950  19.1694090
  40.7339640   6.9072400  18.6056810  41.8645620   7.1350430  19.5863600
  36.2154130   5.9698820  25.8477690  35.8823510   6.5967740  26.4898760
  36.3920810   6.4960700  25.0679360  35.4273230   7.9379620  27.6626870
  36.0447230   8.6130700  27.3811320  34.5666350   8.3467600  27.5714370
  30.7205570   7.1279480  16.5433720  30.3433550   7.6166580  15.8118620
  30.9778640   7.8004760  17.1740250  46.3450820   9.4019030  25.5781510
  45.6614340  10.0718140  25.5698180  46.8845110   9.5999680  24.8126370
  43.8809560  11.2463160  24.2926690  43.8936720  10.8425450  23.4248950
  43.3284780  12.0210450  24.1888120  45.1754980   7.9679380  19.3816860
  45.0651310   7.0253710  19.5066280  45.1723230   8.3295020  20.2679620
  43.2795000   6.1493000  25.6209300  43.6963790   5.9353110  24.7862760
  44.0034820   6.4065790  26.1917920  40.7175260   3.5944700  18.7379350
  39.7904540   3.5282080  18.9667820  40.8700080   4.5324830  18.6234590
  47.2257100   4.5480220  25.7125540  46.3975730   4.6173310  25.2375670
  47.8207580   5.1334530  25.2441370  44.7472550   5.1565000  19.2414600
  44.1284970   4.8184550  18.5940900  44.7297000   4.5124760  19.9493790
  36.3231900   4.1209440  21.5199080  35.9188900   3.4086690  21.0244980
  36.4095020   3.7762680  22.4087120  36.7913600   7.8077000  23.6838290
  36.4941890   7.2022470  23.0046070  37.7413420   7.8454310  23.5727650
  44.8799210  11.3808870  27.3461390  44.4029770  12.1881060  27.1534000
  44.1961000  10.7287200  27.4987600  35.8832030   7.5458690  30.3346090
  34.9860560   7.7698660  30.5819490  35.9084900   7.6693630  29.3857490
  42.9237250   4.3951810  16.2487350  43.3630530   3.5574240  16.1025170
  43.6365670   5.0281210  16.3351490  34.7103250   4.4172010  28.9103460
  34.5711020   5.2894810  29.2790860  33.8284610   4.0744820  28.7651400
  41.0332630   9.3347880  20.2168590  41.4728540  10.0772210  19.8023980
  40.9719520   9.5774450  21.1407550  36.5083600  10.3593710  31.1188610
  36.4799030  10.7636660  30.2517040  36.3448570   9.4304070  30.9560210
  33.0236530   3.0154420  19.0205730  32.9034130   3.7416510  18.4087000
  32.7137420   2.2457330  18.5433640  48.4598420  11.1420810  32.4152780
  48.9358140  11.6203700  33.0941860  49.0805580  11.0738300  31.6898280
  30.6621900   6.1869560  24.8274370  30.7402320   6.3218330  23.8830090
  31.2763580   5.4785450  25.0202490  31.9069530   7.8869750  21.2380550
  31.4997610   8.0284340  20.3834150  32.7982540   7.6029910  21.0351760
  47.8631670   8.3333660  29.5752790  47.9894730   8.0945540  28.6569970
  47.9053050   7.5018200  30.0474870  41.7248410  12.0361660  28.1447600
  42.2393080  11.9469670  28.9470030  40.8817490  12.3821360  28.4375510
  43.7002810  12.3217000  17.5731600  43.5403950  12.0319940  18.4713430
  43.5349520  11.5457130  17.0376830  36.1791190  12.1015530  19.3503220
  36.0033670  11.1851070  19.1371020  35.3246930  12.4602820  19.5901020
  43.4028940   9.8304560  16.1329600  42.7094100   9.8281850  15.4731880
  44.1451800   9.4063880  15.7023770  42.9678870  11.4567270  20.2078090
  43.4235820  10.6756650  20.5216710  43.3071390  12.1674090  20.7519270
  30.7181420   7.2283730  27.3668830  30.8812460   6.7589090  26.5488200
  31.1833870   6.7207290  28.0317670  41.7032180   2.7155720  24.8555360
  40.9713300   3.2242530  25.2045460  41.3056520   1.8985700  24.5544140
  37.2151220   2.7023140  15.6497910  36.6468120   2.2541390  15.0233820
  37.9240220   3.0615920  15.1163060  32.2920400   6.6035160  29.5264640
  31.9075190   5.9628830  30.1247600  32.6032590   7.3071280  30.0959370
  38.4417540   3.4511700  25.0073260  38.8087670   2.9770270  25.7534600
  38.2522600   4.3253270  25.3481600  36.2316910   2.4920340  27.3257470
  35.9273980   3.3712320  27.5507830  37.1863370   2.5520130  27.3614910
  34.7598700   6.6981330  17.9224320  33.9860960   6.1578950  17.7623040
  35.4893330   6.1787940  17.5842080  45.5186680   5.6946690  23.7150710
  46.2385800   6.1901980  23.3246820  45.3168500   5.0164580  23.0704580
  40.9005480   5.7655750  29.6019710  40.8342790   4.8451420  29.3477300
  40.2710620   5.8631190  30.3164350  34.8036100   6.3661710  21.5603130
  35.3214770   5.5629970  21.5060020  34.3520120   6.3040850  22.4019960
  39.6905600   7.6327990  16.8330430  40.0321300   8.3770220  16.3373750
  38.8618310   7.9459110  17.1955260  32.2880640   3.3323080  28.4728830
  31.9295580   3.9976930  29.0602170  31.9935200   2.5006630  28.8441450
  35.4893760   3.7907320  31.3568380  35.1893900   3.9364500  30.4596200
  36.2605000   3.2312610  31.2641770  40.8322210   8.5876320  29.3523510
  40.8466750   7.6557280  29.1342420  40.1247310   8.6736080  29.9913280
  45.9659280   2.7716140  15.6222120  45.8823000   3.2030360  14.7718560
  46.6853470   3.2314490  16.0548940  47.0433420   5.2283660  28.6992090
  46.3181610   5.8212440  28.5021480  47.5708880   5.2207200  27.9005460
  46.9946530   9.6258400  18.3504250  46.3522690   8.9714020  18.6247970
  46.6077190  10.0313490  17.5744920  42.5733010   6.9543830  22.1975940
  42.9256830   6.3571960  21.5377310  41.6895340   6.6288060  22.3684190
  38.6596290   7.7141520  19.6046350  39.3467420   8.2610730  19.9853940
  37.8728710   8.2582250  19.6395960  30.7988690   3.3314340  15.0963430
  31.6683540   3.6139140  15.3799350  30.3079010   4.1450210  14.9812240
  37.9623500   4.7187550  19.2171710  38.4186280   5.5292800  19.4431900
  37.6111710   4.4010690  20.0490200  40.2656110  10.2293890  26.4464010
  40.9098330  10.4353270  27.1237430  40.6285550   9.4682290  25.9934860
  41.5388190   8.2326240  25.1641460  42.1810420   7.5319400  25.2773630
  42.0637540   9.0124680  24.9838350  45.3843910   8.5174860  14.8880600
  45.1581490   7.8005300  15.4805240  44.9940110   8.2687300  14.0502350
  43.3125810   9.0321140  28.3677520  43.6482050   9.6187830  29.0455440
  42.3926150   8.9013850  28.5975310  31.1659940  12.5441720  15.6625060
  31.5257580  13.1431060  15.0082330  31.0252280  13.0901610  16.4360090
  44.9660160   6.4346800  16.5494760  44.6781860   6.8959490  17.3372640
  45.7612330   5.9744570  16.8178980  31.1501800  10.8096580  30.1367460
  31.2592920   9.8691320  29.9962850  30.4982360  11.0751330  29.4881190
  39.1414390   9.0812470  31.5365580  38.8211260   8.3621710  32.0811270
  38.4672750   9.7567540  31.6101640  37.1828560   9.9272920  16.4798730
  37.1738660  10.6602610  15.8643240  36.2626920   9.6804500  16.5725690
  32.7835200   5.1487810  17.2245490  32.1763150   5.8886710  17.2340790
  33.2584550   5.2387170  16.3983690  40.1688160   9.9901160  15.1423920
  40.2700140   9.7865150  14.2125900  39.2689900   9.7359440  15.3471700
  38.8106270  12.5087480  19.8371590  39.0647770  12.4708870  18.9150960
  37.8618750  12.3820810  19.8299840  44.8158850   3.4279360  21.4130100
  43.8748990   3.4429590  21.5877790  45.1302920   2.6415320  21.8590400
  34.7940490   5.1098960  14.9734060  35.5603760   4.9980320  15.5359490
  34.8715180   4.4136930  14.3210830  46.8184430  10.5988210  23.0884360
  46.9431850  11.4219380  23.5608170  47.6849990  10.3878940  22.7408510
  34.2901960  12.6919420  22.7601490  35.0264440  12.1434880  23.0310060
  34.6742880  13.5575430  22.6207480  31.1747440   8.7592990  18.6343000
  30.2487220   9.0014130  18.6248410  31.6403870   9.5867250  18.5127750
  33.2960240  11.8765490  31.9487070  34.0972970  12.1977540  32.3622470
  32.7812060  11.5161070  32.6706980  37.4004270  11.8649730  14.5827060
  38.1932880  12.1538560  14.1308850  36.8808620  11.4341900  13.9039540
  42.1324870   7.9845360  31.8962480  41.5263030   8.0076960  31.1558230
  41.8278980   7.2528400  32.4329730  43.5625240  11.7125650  30.5071890
  44.5146990  11.6283670  30.4572130  43.4153460  12.3767360  31.1805680
  46.4534440  11.0919860  16.0063800  46.1675950  10.6785000  15.1917980
  46.2553990  12.0207570  15.8864320  31.0158050   4.3638950  30.8923120
  31.5197070   3.7846230  31.4639350  30.2765470   4.6479180  31.4299490
  37.9181670   7.0853140  14.4469410  37.8132310   6.4705490  15.1730790
  37.7505890   6.5619030  13.6632420  38.0695990   5.7709940  30.4258640
  37.3041660   6.3394940  30.3413310  38.2511950   5.4786150  29.5326870
  41.1584400   6.1473170  15.0511400  40.6094500   6.5942470  15.6954140
  41.7803660   5.6422420  15.5749070  45.2119340   7.5015270  30.9833660
  45.9528810   7.8391030  30.4801120  44.4492020   7.6707330  30.4303430
  33.0481130   2.5068540  31.7873190  33.0886470   2.2082410  32.6958420
  33.9026630   2.9076150  31.6280710  36.8259520   5.1064090  16.9476700
  37.2475940   4.9403960  17.7908090  36.9510360   4.2964320  16.4531840
  39.3387160   4.1301700  14.1953800  39.8592820   3.4150720  13.8294950
  39.9855560   4.7687570  14.4954310  43.8865000   5.5530100  29.5188870
  44.3006020   5.7075180  30.3679290  42.9516000   5.6785320  29.6814650
  44.3587170   2.8926260  31.5228020  44.9407940   2.1378580  31.4348500
  44.5348940   3.4233700  30.7459500  38.6480230   5.5050580  27.4884800
  39.0668340   6.3483310  27.3161040  37.7288860   5.6422620  27.2591580
  40.9844130   3.2366760  28.8722640  41.1040340   2.6407900  29.6117480
  41.8438130   3.2736450  28.4523940  43.3232030   3.7903950  27.4485150
  42.7967250   4.3146570  26.8450290  43.6663370   4.4231340  28.0794880
  36.4987650  11.8103590  28.6042530  35.9608740  12.5349650  28.2851230
  36.7521610  11.3333930  27.8139870  39.3549860  13.0454800  28.8629180
  39.2808560  13.9489940  29.1701550  38.4528700  12.7266700  28.8351250
  39.9035190  12.2113310  16.4855540  40.7985980  12.5498280  16.5074300
  39.9352820  11.4892720  15.8579820  33.5431350   7.5840360  14.7142540
  33.9806220   8.1270030  15.3700120  34.0279080   6.7587310  14.7238880
  30.7577150  10.3729390  22.1662800  31.0880160   9.5050450  21.9341440
  31.1868150  10.5787910  22.9967760  35.3539070   8.7038400  19.8264770
  35.0534610   8.5803370  20.7268680  35.2476560   7.8446990  19.4180500
  31.2467360  11.2399980  24.9044430  30.8098350  11.4200780  25.7368580
  31.8145040  11.9974600  24.7626150  46.8829540  10.7416980  29.1921740
  46.2831530  10.8009540  28.4485660  47.0123440   9.8021960  29.3218590
  48.1230990   8.4834800  14.5291450  47.2923950   8.5511450  14.9998680
  48.3002820   9.3738920  14.2258310  47.5787450   5.2282280  17.0325650
  48.3406360   5.7978930  17.1385340  47.5941820   4.6609480  17.8033960
  31.0791790   3.7520210  21.2633310  30.4240630   3.4831850  20.6193010
  31.9169740   3.6424690  20.8135290  48.5847420   6.0832380  21.8767580
  48.9556250   5.2999700  21.4703550  49.2249350   6.7721480  21.6984880
  45.5681180   7.4668960  27.2897900  44.7541020   7.8966120  27.5523690
  45.9755380   8.0787370  26.6766950  47.6306620   5.5216650  14.1898170
  47.9055460   6.4295530  14.0617390  47.4417360   5.4579180  15.1260160
  47.5271960   3.4585640  19.1827600  47.1515560   2.6913570  18.7508890
  46.7975080   3.8408340  19.6702530  32.1167720   4.1372780  25.8036650
  32.4840760   4.0500180  26.6832670  31.5478540   3.3739330  25.7043510
  46.9171580   2.6057160  28.8167120  46.6857670   2.3769910  27.9165070
  47.1776130   3.5256710  28.7712010  46.9812640   1.7683000  26.0054390
  46.0315350   1.7346540  26.1199380  47.1625650   2.6783110  25.7704160
  45.6257230  12.2187560  20.8166170  46.2216300  11.8972130  20.1400590
  45.8835380  11.7459380  21.6079440  33.5319800   8.6505470  30.9656800
  33.4889430   8.2798380  31.8471260  33.6630810   9.5883040  31.1058620
  37.2325830  10.2065060  26.5666520  36.9917190  10.4739620  25.6797040
  38.1728470  10.3770790  26.6217380  48.4929990  12.2259440  27.3677160
  47.9988270  12.6228310  26.6504290  47.8843280  11.6008650  27.7614440
  33.3707830  11.5967720  28.0854580  32.7768150  11.4652420  28.8244620
  33.3631670  10.7605860  27.6196680  46.1769440  12.8682860  24.6463900
  45.7172410  13.6198670  24.2721920  45.5481900  12.1489330  24.5878700
  33.0020060   8.9626100  27.0362620  32.2754120   8.3431390  26.9688570
  33.0629210   9.3566710  26.1660700  36.6065160  11.1771100  23.8212030
  37.1230180  10.5658460  23.2960290  37.2562540  11.6799880  24.3123040
  39.3460660  12.0679590  24.6481010  39.6338470  11.8133890  23.7714020
  39.8583880  11.5156950  25.2386580  31.2850060  12.2800490  20.2459380
  31.1172100  11.6471170  20.9441270  30.4184570  12.4859890  19.8953570
  32.8912760  10.9733720  17.6909520  32.3660380  11.3541750  16.9871480
  32.8157340  11.5984490  18.4119230  39.4133020  12.9895690  32.0149210
  40.3400330  12.7539960  32.0585170  39.3983450  13.8167690  31.5335240
  47.6478080  12.5321260  19.0123460  47.8230270  11.8459000  18.3684380
  46.9499650  13.0568310  18.6200130  35.4905730  12.9216100  16.5658770
  36.2224550  12.6375380  16.0182660  35.7499400  12.6829380  17.4558150
  34.6520520   9.0380830  16.5705100  34.0229400   9.5065930  17.1190930
  34.7668350   8.1930050  17.0051290  45.9810580  12.2165550  31.8390250
  46.7735900  11.7214780  31.6316210  46.2743730  12.8955690  32.4465860
  42.1070240   3.0886490   2.7206300  42.0264290   2.1741100   2.4498010
  41.6934660   3.5853560   2.0146010  40.2388280   4.8665510   4.6015570
  39.4630380   4.3865950   4.8914140  40.8901210   4.1871160   4.4271730
  34.2554110   5.1785320   5.4791330  33.4238990   4.9234030   5.8787840
  34.8635090   5.2496090   6.2149250  44.2595710   9.2725700   3.3814700
  43.7977240   8.5012940   3.7101870  45.0721260   9.2991770   3.8867150
  34.2355370   9.2125410   5.6749350  34.5383410   8.3223150   5.4959570
  34.9798960   9.7695630   5.4471600  30.6279070   2.7392860   5.1473420
  31.1995180   1.9715060   5.1477060  30.6280610   3.0381620   4.2380030
  40.4859020  11.5583710   3.0018690  39.8670460  12.0141210   2.4313130
  41.3410800  11.7135170   2.6008390  39.6797270   7.5422700   4.6085730
  39.6105550   6.6012640   4.4474860  40.4417130   7.6324110   5.1808300
  36.2154130   5.9698820   7.0734200  35.8823510   6.5967740   7.7155270
  36.3920810   6.4960700   6.2935870  35.4273230   7.9379620   8.8883380
  36.0447230   8.6130700   8.6067830  34.5666350   8.3467600   8.7970880
  46.3450820   9.4019030   6.8038020  45.6614340  10.0718140   6.7954690
  46.8845110   9.5999680   6.0382880  43.8809560  11.2463160   5.5183200
  43.8936720  10.8425450   4.6505460  43.3284780  12.0210450   5.4144630
  43.2795000   6.1493000   6.8465810  43.6963790   5.9353110   6.0119270
  44.0034820   6.4065790   7.4174430  47.2257100   4.5480220   6.9382050
  46.3975730   4.6173310   6.4632180  47.8207580   5.1334530   6.4697880
  36.3231900   4.1209440   2.7455590  35.9188900   3.4086690   2.2501490
  36.4095020   3.7762680   3.6343630  36.7913600   7.8077000   4.9094800
  36.4941890   7.2022470   4.2302580  37.7413420   7.8454310   4.7984160
  44.8799210  11.3808870   8.5717900  44.4029770  12.1881060   8.3790510
  44.1961000  10.7287200   8.7244110  35.8832030   7.5458690  11.5602600
  34.9860560   7.7698660  11.8076000  35.9084900   7.6693630  10.6114000
  34.7103250   4.4172010  10.1359970  34.5711020   5.2894810  10.5047370
  33.8284610   4.0744820   9.9907910  36.5083600  10.3593710  12.3445120
  36.4799030  10.7636660  11.4773550  36.3448570   9.4304070  12.1816720
  48.4598420  11.1420810  13.6409290  48.9358140  11.6203700  14.3198370
  49.0805580  11.0738300  12.9154790  30.6621900   6.1869560   6.0530880
  30.7402320   6.3218330   5.1086600  31.2763580   5.4785450   6.2459000
  47.8631670   8.3333660  10.8009300  47.9894730   8.0945540   9.8826480
  47.9053050   7.5018200  11.2731380  41.7248410  12.0361660   9.3704110
  42.2393080  11.9469670  10.1726540  40.8817490  12.3821360   9.6632020
  30.7181420   7.2283730   8.5925340  30.8812460   6.7589090   7.7744710
  31.1833870   6.7207290   9.2574180  41.7032180   2.7155720   6.0811870
  40.9713300   3.2242530   6.4301970  41.3056520   1.8985700   5.7800650
  32.2920400   6.6035160  10.7521150  31.9075190   5.9628830  11.3504110
  32.6032590   7.3071280  11.3215880  38.4417540   3.4511700   6.2329770
  38.8087670   2.9770270   6.9791110  38.2522600   4.3253270   6.5738110
  36.2316910   2.4920340   8.5513980  35.9273980   3.3712320   8.7764340
  37.1863370   2.5520130   8.5871420  45.5186680   5.6946690   4.9407220
  46.2385800   6.1901980   4.5503330  45.3168500   5.0164580   4.2961090
  40.9005480   5.7655750  10.8276220  40.8342790   4.8451420  10.5733810
  40.2710620   5.8631190  11.5420860  34.8036100   6.3661710   2.7859640
  35.3214770   5.5629970   2.7316530  34.3520120   6.3040850   3.6276470
  32.2880640   3.3323080   9.6985340  31.9295580   3.9976930  10.2858680
  31.9935200   2.5006630  10.0697960  35.4893760   3.7907320  12.5824890
  35.1893900   3.9364500  11.6852710  36.2605000   3.2312610  12.4898280
  40.8322210   8.5876320  10.5780020  40.8466750   7.6557280  10.3598930
  40.1247310   8.6736080  11.2169790  47.0433420   5.2283660   9.9248600
  46.3181610   5.8212440   9.7277990  47.5708880   5.2207200   9.1261970
  42.5733010   6.9543830   3.4232450  42.9256830   6.3571960   2.7633820
  41.6895340   6.6288060   3.5940700  40.2656110  10.2293890   7.6720520
  40.9098330  10.4353270   8.3493940  40.6285550   9.4682290   7.2191370
  41.5388190   8.2326240   6.3897970  42.1810420   7.5319400   6.5030140
  42.0637540   9.0124680   6.2094860  43.3125810   9.0321140   9.5934030
  43.6482050   9.6187830  10.2711950  42.3926150   8.9013850   9.8231820
  31.1501800  10.8096580  11.3623970  31.2592920   9.8691320  11.2219360
  30.4982360  11.0751330  10.7137700  39.1414390   9.0812470  12.7622090
  38.8211260   8.3621710  13.3067780  38.4672750   9.7567540  12.8358150
  44.8158850   3.4279360   2.6386610  43.8748990   3.4429590   2.8134300
  45.1302920   2.6415320   3.0846910  46.8184430  10.5988210   4.3140870
  46.9431850  11.4219380   4.7864680  47.6849990  10.3878940   3.9665020
  34.2901960  12.6919420   3.9858000  35.0264440  12.1434880   4.2566570
  34.6742880  13.5575430   3.8463990  33.2960240  11.8765490  13.1743580
  34.0972970  12.1977540  13.5878980  32.7812060  11.5161070  13.8963490
  42.1324870   7.9845360  13.1218990  41.5263030   8.0076960  12.3814740
  41.8278980   7.2528400  13.6586240  43.5625240  11.7125650  11.7328400
  44.5146990  11.6283670  11.6828640  43.4153460  12.3767360  12.4062190
  31.0158050   4.3638950  12.1179630  31.5197070   3.7846230  12.6895860
  30.2765470   4.6479180  12.6556000  38.0695990   5.7709940  11.6515150
  37.3041660   6.3394940  11.5669820  38.2511950   5.4786150  10.7583380
  45.2119340   7.5015270  12.2090170  45.9528810   7.8391030  11.7057630
  44.4492020   7.6707330  11.6559940  33.0481130   2.5068540  13.0129700
  33.0886470   2.2082410  13.9214930  33.9026630   2.9076150  12.8537220
  43.8865000   5.5530100  10.7445380  44.3006020   5.7075180  11.5935800
  42.9516000   5.6785320  10.9071160  44.3587170   2.8926260  12.7484530
  44.9407940   2.1378580  12.6605010  44.5348940   3.4233700  11.9716010
  38.6480230   5.5050580   8.7141310  39.0668340   6.3483310   8.5417550
  37.7288860   5.6422620   8.4848090  40.9844130   3.2366760  10.0979150
  41.1040340   2.6407900  10.8373990  41.8438130   3.2736450   9.6780450
  43.3232030   3.7903950   8.6741660  42.7967250   4.3146570   8.0706800
  43.6663370   4.4231340   9.3051390  36.4987650  11.8103590   9.8299040
  35.9608740  12.5349650   9.5107740  36.7521610  11.3333930   9.0396380
  39.3549860  13.0454800  10.0885690  39.2808560  13.9489940  10.3958060
  38.4528700  12.7266700  10.0607760  30.7577150  10.3729390   3.3919310
  31.0880160   9.5050450   3.1597950  31.1868150  10.5787910   4.2224270
  31.2467360  11.2399980   6.1300940  30.8098350  11.4200780   6.9625090
  31.8145040  11.9974600   5.9882660  46.8829540  10.7416980  10.4178250
  46.2831530  10.8009540   9.6742170  47.0123440   9.8021960  10.5475100
  31.0791790   3.7520210   2.4889820  30.4240630   3.4831850   1.8449520
  31.9169740   3.6424690   2.0391800  48.5847420   6.0832380   3.1024090
  48.9556250   5.2999700   2.6960060  49.2249350   6.7721480   2.9241390
  45.5681180   7.4668960   8.5154410  44.7541020   7.8966120   8.7780200
  45.9755380   8.0787370   7.9023460  32.1167720   4.1372780   7.0293160
  32.4840760   4.0500180   7.9089180  31.5478540   3.3739330   6.9300020
  46.9171580   2.6057160  10.0423630  46.6857670   2.3769910   9.1421580
  47.1776130   3.5256710   9.9968520  46.9812640   1.7683000   7.2310900
  46.0315350   1.7346540   7.3455890  47.1625650   2.6783110   6.9960670
  33.5319800   8.6505470  12.1913310  33.4889430   8.2798380  13.0727770
  33.6630810   9.5883040  12.3315130  37.2325830  10.2065060   7.7923030
  36.9917190  10.4739620   6.9053550  38.1728470  10.3770790   7.8473890
  48.4929990  12.2259440   8.5933670  47.9988270  12.6228310   7.8760800
  47.8843280  11.6008650   8.9870950  33.3707830  11.5967720   9.3111090
  32.7768150  11.4652420  10.0501130  33.3631670  10.7605860   8.8453190
  46.1769440  12.8682860   5.8720410  45.7172410  13.6198670   5.4978430
  45.5481900  12.1489330   5.8135210  33.0020060   8.9626100   8.2619130
  32.2754120   8.3431390   8.1945080  33.0629210   9.3566710   7.3917210
  36.6065160  11.1771100   5.0468540  37.1230180  10.5658460   4.5216800
  37.2562540  11.6799880   5.5379550  39.3460660  12.0679590   5.8737520
  39.6338470  11.8133890   4.9970530  39.8583880  11.5156950   6.4643090
  39.4133020  12.9895690  13.2405720  40.3400330  12.7539960  13.2841680
  39.3983450  13.8167690  12.7591750  45.9810580  12.2165550  13.0646760
  46.7735900  11.7214780  12.8572720  46.2743730  12.8955690  13.6722370
  23.3326750  78.1860450  77.8180260  23.2520800  77.2715060  77.5471970
  22.9191170  78.6827520  77.1119970  21.4644790  79.9639470  79.6989530
  20.6886890  79.4839910  79.9888100  22.1157720  79.2845120  79.5245690
  15.4810620  80.2759280  80.5765290  14.6495500  80.0207990  80.9761800
  16.0891600  80.3470050  81.3123210  13.8902570  75.2361170  74.3607680
  13.0019270  75.5777140  74.2587560  14.1743760  75.0361490  73.4688510
  11.8535580  77.8366820  80.2447380  12.4251690  77.0689020  80.2451020
  11.8537120  78.1355580  79.3353990  21.9358950  75.4467040  79.9328620
  22.3123770  74.5738920  79.8202290  21.8378460  75.7825740  79.0419060
  16.0663960  73.8192670  75.3946060  16.1730710  74.7196400  75.7014820
  15.1556320  73.7710640  75.1040710  25.7183070  72.9417480  76.8656960
  26.5392690  72.4514050  76.9082440  25.7517150  73.5315140  77.6188800
  13.7147120  75.7411680  80.6398650  14.3957230  76.0050050  81.2586050
  13.3995170  74.9012550  80.9736660  17.9071690  76.7879040  79.7271240
  18.4149910  77.2860010  80.3676260  18.4384930  76.0114240  79.5510600
  25.9544550  74.8817860  79.6384500  25.2500120  75.1702750  80.2187610
  26.3156710  75.6917970  79.2784060  29.0231470  74.3272650  80.0293710
  28.0756380  74.3611630  80.1609140  29.3481460  75.1411600  80.4143070
  19.5551010  70.6269830  78.3249700  19.8625990  70.0716720  77.6085200
  18.6251710  70.7614290  78.1422690  21.9431770  78.6918660  75.0609820
  21.0161050  78.6256040  75.2898290  22.0956590  79.6298790  74.9465060
  21.9300850  74.9635660  72.0576980  20.9904520  75.1249620  72.1429440
  22.2484110  75.6821340  71.5112970  28.4513610  79.6454180  82.0356010
  27.6232240  79.7147270  81.5606140  29.0464090  80.2308490  81.5671840
  25.9729060  80.2538960  75.5645070  25.3541480  79.9158510  74.9171370
  25.9553510  79.6098720  76.2724260  17.5488410  79.2183400  77.8429550
  17.1445410  78.5060650  77.3475450  17.6351530  78.8736640  78.7317590
  24.1493760  79.4925770  72.5717820  24.5887040  78.6548200  72.4255640
  24.8622180  80.1255170  72.6581960  27.7310900  70.7468580  70.8858860
  27.4183560  70.8395410  71.7857930  28.4923370  71.3249610  70.8356290
  14.2493040  78.1128380  75.3436200  14.1290640  78.8390470  74.7317470
  13.9393930  77.3431290  74.8664110  16.7156700  71.4563450  78.7259870
  16.2724850  72.2372990  78.3944390  17.2741690  71.7793340  79.4330810
  19.8315520  71.0774150  73.6065700  19.2069700  71.0734020  74.3319010
  19.7445640  70.2105110  73.2101670  18.7532600  72.0010780  80.5849470
  19.0504930  72.9073610  80.5041490  19.3018160  71.5129560  79.9709040
  16.5070920  76.5797020  76.4541120  16.2811840  76.3634190  77.3587740
  15.7263450  77.0125480  76.1087090  23.7368680  76.5860390  75.0531770
  23.1377570  77.3096190  74.8695390  24.2848290  76.5237170  74.2708220
  22.3433550  75.2223930  77.0835050  22.7363120  75.5396130  76.2703740
  22.7050400  74.3435810  77.1979570  11.3797720  71.8124730  79.3065250
  11.0910770  72.3827590  80.0190230  12.1243480  71.3329180  79.6696480
  11.5667950  75.7544850  70.5167970  11.4842620  76.6975610  70.6582960
  11.2151010  75.6119760  69.6380320  22.9288690  77.8129680  81.1785830
  22.1969810  78.3216490  81.5275930  22.5313030  76.9959660  80.8774610
  19.3666080  74.4883880  79.5838320  19.3702140  74.0473830  78.7342860
  20.2617200  74.8101210  79.6910140  15.2168460  74.3710370  78.5432530
  14.8768510  74.8485600  79.2999580  14.4545780  73.9175490  78.1833630
  19.4286230  75.4895960  72.5745080  19.5499050  75.4482440  73.5230900
  19.0434740  76.3520110  72.4191810  23.3914600  73.2663360  80.5908770
  23.4087340  73.7172010  81.4350620  23.1430180  72.3669000  80.8042210
  18.4407730  77.7997100  71.9728380  17.8724630  77.3515350  71.3464290
  19.1496730  78.1589880  71.4393530  12.5314540  73.2929350  77.4597200
  12.2461460  72.9285020  78.2975820  12.4693400  72.5609810  76.8460340
  22.2053130  72.1858610  74.1810570  21.3917740  71.6871780  74.1055880
  22.0115080  73.0256860  73.7646920  24.9201520  76.5578260  72.4772730
  25.8081140  76.8695490  72.3024070  24.8906610  75.6850510  72.0853310
  27.1915790  77.8690100  71.9452590  27.1079510  78.3004320  71.0949030
  27.9109980  78.3288450  72.3779410  12.0245200  78.4288300  71.4193900
  12.8940050  78.7113100  71.7029820  11.5335520  79.2424170  71.3042710
  19.1880010  79.8161510  75.5402180  19.6442790  80.6266760  75.7662370
  18.8368220  79.4984650  76.3720670  15.0891790  70.1599160  76.0124700
  14.9606420  70.1517060  76.9609620  14.2653810  70.4982250  75.6615710
  14.0091710  80.2461770  73.5475960  13.4019660  80.9860670  73.5571260
  14.4841060  80.3361130  72.7214160  26.9486530  73.3669530  74.0320410
  26.3199690  73.4715200  73.3178640  26.4538450  73.5866310  74.8214290
  18.9170560  75.6455480  75.4478290  18.2086710  76.1141820  75.8891900
  19.2015040  74.9877490  76.0823480  22.9485990  72.3706140  76.8874080
  22.8253770  72.3892270  75.9383590  23.8970550  72.4185080  77.0072480
  17.1205580  73.9540560  72.8229000  17.9696110  74.3910710  72.7569190
  16.7536850  74.2660820  73.6501060  26.0415360  78.5253320  77.7360570
  25.1005500  78.5403550  77.9108260  26.3559430  77.7389280  78.1820870
  16.0197000  80.2072920  71.2964530  16.7860270  80.0954280  71.8589960
  16.0971690  79.5110890  70.6441300  14.7143760  77.6397990  71.9797420
  14.7947350  76.6925500  72.0914820  15.6063510  77.9704870  72.0858080
  18.0516030  80.2038050  73.2707170  18.4732450  80.0377920  74.1138560
  18.1766870  79.3938280  72.7762310  20.5643670  79.2275660  70.5184270
  21.0849330  78.5124680  70.1525420  21.2112070  79.8661530  70.8184780
  16.9474930  76.2771280  70.2165330  16.7463990  75.4138640  70.5778670
  16.7766980  76.1904640  69.2786930  24.4263240  71.0879510  72.7452210
  24.7065530  70.2447410  73.1011630  23.6528970  71.3202620  73.2590960
  15.7457730  73.3771900  70.2043210  16.0483630  73.3839330  69.2962360
  16.4852320  73.0269760  70.7010870  18.9642660  72.3206520  71.1899410
  18.6164660  71.6430510  70.6101860  19.1655430  71.8596030  72.0042800
  28.8043960  80.3256240  73.3556120  29.5662870  80.8952890  73.4615810
  28.8198330  79.7583440  74.1264430  12.3048300  78.8494170  77.5863780
  11.6497140  78.5805810  76.9423480  13.1426250  78.7398650  77.1365760
  25.2538740  73.6435460  71.8082270  25.6723620  73.4566440  70.9678930
  24.9474800  72.7914510  72.1185200  28.7528470  78.5559600  75.5058070
  28.3772070  77.7887530  75.0739360  28.0231590  78.9382300  75.9933000
  11.5186380  76.0593100  73.5289110  10.6150460  76.3223300  73.3540770
  12.0027000  76.3304270  72.7489070  28.0279430  76.7817090  78.8065310
  28.5516910  76.2879740  78.1755480  28.6138850  76.9167450  79.5512880
  14.0613590  75.1158640  71.4383490  14.7705290  74.6941860  70.9530770
  13.3453530  75.1833870  70.8066840  13.7087750  71.1697970  70.4786140
  14.4315880  71.7106910  70.7967360  13.9812270  70.8961390  69.6027680
  27.5179400  76.0390440  74.7457720  28.0138520  75.8061310  75.5306600
  27.3195470  75.2002280  74.3295360  13.3979940  70.4204160  80.3808760
  14.0456130  69.8701540  79.9403920  13.8181780  70.6747310  81.2024570
  28.9466560  74.6751390  77.2795400  28.8365840  74.5207430  78.2177670
  29.7074150  74.1472330  77.0370810  29.8356830  72.5059310  70.5201540
  30.7606140  72.3740490  70.3119830  29.8132620  72.5852130  71.4737990
  29.9095320  73.2769970  73.1458250  29.1146820  73.2115090  73.6751160
  30.1138600  74.2120610  73.1343600  21.7894180  70.9043750  81.5507990
  21.0065970  71.3789250  81.8304750  21.4957110  69.9998580  81.4421170
  26.3415250  71.6066850  79.5957080  26.7823340  71.5511950  78.7478680
  26.0722840  72.5224860  79.6667260  28.2053820  71.2382090  77.6065900
  28.1442220  70.2943310  77.4596920  28.9845850  71.3462180  78.1519360
  13.1334590  71.2091230  74.0721710  13.8913950  71.3220110  73.4985740
  12.6711760  72.0460430  74.0265140  19.6748400  73.3230500  77.0624020
  18.8622910  72.9487390  76.7219900  20.1790040  72.5675580  77.3645210
  24.1773380  69.9872950  78.3007090  24.7802750  70.5593160  78.7755610
  23.4366370  70.5512390  78.0780990  27.3207980  70.3894510  73.5747370
  27.5158610  71.2877960  73.8414800  26.5337850  70.1581590  74.0680320
  15.5059740  71.7355280  72.6123680  16.0352500  70.9485080  72.4831630
  16.1388060  72.4146470  72.8459210  17.6997580  71.4730420  75.6669070
  17.0700320  70.7717730  75.8339200  17.1602720  72.2334550  75.4502230
  23.3326750  78.1860450  59.0436770  23.2520800  77.2715060  58.7728480
  22.9191170  78.6827520  58.3376480  21.4644790  79.9639470  60.9246040
  20.6886890  79.4839910  61.2144610  22.1157720  79.2845120  60.7502200
  15.4810620  80.2759280  61.8021800  14.6495500  80.0207990  62.2018310
  16.0891600  80.3470050  62.5379720  13.8902570  75.2361170  55.5864190
  13.0019270  75.5777140  55.4844070  14.1743760  75.0361490  54.6945020
  11.8535580  77.8366820  61.4703890  12.4251690  77.0689020  61.4707530
  11.8537120  78.1355580  60.5610500  13.0960450  73.2451180  63.2572820
  12.9163290  72.3476930  63.5375580  12.6940530  73.7923050  63.9319770
  21.9358950  75.4467040  61.1585130  22.3123770  74.5738920  61.0458800
  21.8378460  75.7825740  60.2675570  16.0663960  73.8192670  56.6202570
  16.1730710  74.7196400  56.9271330  15.1556320  73.7710640  56.3297220
  25.7183070  72.9417480  58.0913470  26.5392690  72.4514050  58.1338950
  25.7517150  73.5315140  58.8445310  13.7147120  75.7411680  61.8655160
  14.3957230  76.0050050  62.4842560  13.3995170  74.9012550  62.1993170
  17.9071690  76.7879040  60.9527750  18.4149910  77.2860010  61.5932770
  18.4384930  76.0114240  60.7767110  30.0082620  74.9584230  64.6557100
  29.3034790  75.3465940  64.1372210  30.2740540  75.6534520  65.2578030
  16.1907790  71.4277600  65.2191170  16.1926230  71.9449990  64.4137070
  15.3612100  70.9507780  65.1961100  25.9544550  74.8817860  60.8641010
  25.2500120  75.1702750  61.4444120  26.3156710  75.6917970  60.5040570
  15.8723120  73.1387560  63.2261620  16.2139930  73.9829610  62.9315490
  14.9338930  73.2871300  63.3426960  29.0231470  74.3272650  61.2550220
  28.0756380  74.3611630  61.3865650  29.3481460  75.1411600  61.6399580
  19.5551010  70.6269830  59.5506210  19.8625990  70.0716720  58.8341710
  18.6251710  70.7614290  59.3679200  21.9431770  78.6918660  56.2866330
  21.0161050  78.6256040  56.5154800  22.0956590  79.6298790  56.1721570
  21.9300850  74.9635660  53.2833490  20.9904520  75.1249620  53.3685950
  22.2484110  75.6821340  52.7369480  28.4513610  79.6454180  63.2612520
  27.6232240  79.7147270  62.7862650  29.0464090  80.2308490  62.7928350
  25.9729060  80.2538960  56.7901580  25.3541480  79.9158510  56.1427880
  25.9553510  79.6098720  57.4980770  25.4155620  76.4323500  64.2067390
  25.0026800  77.2577210  64.4607380  24.6831570  75.8468540  64.0143750
  17.5488410  79.2183400  59.0686060  17.1445410  78.5060650  58.5731960
  17.6351530  78.8736640  59.9574100  16.2617030  75.9926610  62.8485100
  16.8131620  76.1021950  62.0738350  16.7760540  76.3664210  63.5640330
  24.1493760  79.4925770  53.7974330  24.5887040  78.6548200  53.6512150
  24.8622180  80.1255170  53.8838470  15.9359760  79.5145970  66.4590440
  15.7967530  80.3868770  66.8277840  15.0541120  79.1718780  66.3138380
  27.7310900  70.7468580  52.1115370  27.4183560  70.8395410  53.0114440
  28.4923370  71.3249610  52.0612800  14.2493040  78.1128380  56.5692710
  14.1290640  78.8390470  55.9573980  13.9393930  77.3431290  56.0920620
  28.9412190  75.4840080  68.0889510  28.3256460  75.9919750  67.5604970
  28.6208610  74.5838410  68.0315450  16.7156700  71.4563450  59.9516380
  16.2724850  72.2372990  59.6200900  17.2741690  71.7793340  60.6587320
  21.0026510  74.3231970  65.5551700  20.5405880  74.5314990  66.3671640
  20.6004620  73.5091320  65.2522370  26.0031020  75.5440920  66.6848360
  25.1524610  75.2446670  67.0057430  25.8432810  75.7882930  65.7732180
  23.0980730  77.0442670  68.7847150  23.4234140  76.2106420  68.4449380
  23.8861060  77.5671190  68.9325480  19.8315520  71.0774150  54.8322210
  19.2069700  71.0734020  55.5575520  19.7445640  70.2105110  54.4358180
  18.7532600  72.0010780  61.8105980  19.0504930  72.9073610  61.7298000
  19.3018160  71.5129560  61.1965550  16.5070920  76.5797020  57.6797630
  16.2811840  76.3634190  58.5844250  15.7263450  77.0125480  57.3343600
  23.7368680  76.5860390  56.2788280  23.1377570  77.3096190  56.0951900
  24.2848290  76.5237170  55.4964730  18.9470130  77.4782600  68.3457900
  18.8513730  76.5377330  68.1958300  19.7902110  77.6997670  67.9505970
  22.3433550  75.2223930  58.3091560  22.7363120  75.5396130  57.4960250
  22.7050400  74.3435810  58.4236080  14.0780670  73.8896270  66.4991680
  13.6844060  74.7371480  66.7064460  13.3899070  73.2522640  66.6900320
  20.6525720  73.9731240  69.5688420  19.9624040  73.7803440  70.2034510
  21.3958020  74.2565880  70.1012720  11.3797720  71.8124730  60.5321760
  11.0910770  72.3827590  61.2446740  12.1243480  71.3329180  60.8952990
  11.5667950  75.7544850  51.7424480  11.4842620  76.6975610  51.8839470
  11.2151010  75.6119760  50.8636830  22.9288690  77.8129680  62.4042340
  22.1969810  78.3216490  62.7532440  22.5313030  76.9959660  62.1031120
  19.3666080  74.4883880  60.8094830  19.3702140  74.0473830  59.9599370
  20.2617200  74.8101210  60.9166650  15.2168460  74.3710370  59.7689040
  14.8768510  74.8485600  60.5256090  14.4545780  73.9175490  59.4090140
  19.4286230  75.4895960  53.8001590  19.5499050  75.4482440  54.7487410
  19.0434740  76.3520110  53.6448320  23.3914600  73.2663360  61.8165280
  23.4087340  73.7172010  62.6607130  23.1430180  72.3669000  62.0298720
  18.4407730  77.7997100  53.1984890  17.8724630  77.3515350  52.5720800
  19.1496730  78.1589880  52.6650040  26.8185350  70.6795540  67.6551660
  27.1431120  69.9485200  68.1809640  26.8541860  70.3609180  66.7532650
  19.6674050  78.5485660  62.5560240  20.0344180  78.0744230  63.3021580
  19.4779110  79.4227230  62.8968580  12.5314540  73.2929350  58.6853710
  12.2461460  72.9285020  59.5232330  12.4693400  72.5609810  58.0716850
  17.4573420  77.5894300  64.8744450  17.1530490  78.4686280  65.0994810
  18.4119880  77.6494090  64.9101890  22.2053130  72.1858610  55.4067080
  21.3917740  71.6871780  55.3312390  22.0115080  73.0256860  54.9903430
  22.1261990  80.8629710  67.1506690  22.0599300  79.9425380  66.8964280
  21.4967130  80.9605150  67.8651330  24.9201520  76.5578260  53.7029240
  25.8081140  76.8695490  53.5280580  24.8906610  75.6850510  53.3109820
  13.5137150  78.4297040  66.0215810  13.1552090  79.0950890  66.6089150
  13.2191710  77.5980590  66.3928430  16.7150270  78.8881280  68.9055360
  16.4150410  79.0338460  68.0083180  17.4861510  78.3286570  68.8128750
  27.1915790  77.8690100  53.1709100  27.1079510  78.3004320  52.3205540
  27.9109980  78.3288450  53.6035920  28.2689930  80.3257620  66.2479070
  27.5438120  80.9186400  66.0508460  28.7965390  80.3181160  65.4492440
  12.0245200  78.4288300  52.6450410  12.8940050  78.7113100  52.9286330
  11.5335520  79.2424170  52.5299220  19.1880010  79.8161510  56.7658690
  19.6442790  80.6266760  56.9918880  18.8368220  79.4984650  57.5977180
  15.0891790  70.1599160  57.2381210  14.9606420  70.1517060  58.1866130
  14.2653810  70.4982250  56.8872220  12.0885720  71.9190280  66.6987910
  11.3744240  72.1187200  67.3040520  12.5080760  71.1429850  67.0702710
  14.0091710  80.2461770  54.7732470  13.4019660  80.9860670  54.7827770
  14.4841060  80.3361130  53.9470670  23.5824500  74.4112590  64.4489360
  23.9505320  73.5907800  64.7768930  22.7222700  74.4714480  64.8645010
  26.9486530  73.3669530  55.2576920  26.3199690  73.4715200  54.5435150
  26.4538450  73.5866310  56.0470800  18.9170560  75.6455480  56.6734800
  18.2086710  76.1141820  57.1148410  19.2015040  74.9877490  57.3079990
  20.5426490  77.0652180  64.6727330  21.0411740  77.5398000  65.3379180
  20.6849440  76.1415700  64.8797360  22.9485990  72.3706140  58.1130590
  22.8253770  72.3892270  57.1640100  23.8970550  72.4185080  58.2328990
  17.1205580  73.9540560  54.0485510  17.9696110  74.3910710  53.9825700
  16.7536850  74.2660820  54.8757570  27.7493350  73.2820140  65.5155720
  27.2466950  74.0225540  65.8549530  28.5650010  73.6704140  65.1992510
  26.0415360  78.5253320  58.9617080  25.1005500  78.5403550  59.1364770
  26.3559430  77.7389280  59.4077380  16.0197000  80.2072920  52.5221040
  16.7860270  80.0954280  53.0846470  16.0971690  79.5110890  51.8697810
  14.7143760  77.6397990  53.2053930  14.7947350  76.6925500  53.3171330
  15.6063510  77.9704870  53.3114590  12.2414560  79.4612910  68.4410100
  12.7453580  78.8820190  69.0126330  11.5021980  79.7453140  68.9786470
  14.2737640  77.6042500  69.3360170  14.3142980  77.3056370  70.2445400
  15.1283140  78.0050110  69.1767690  18.0516030  80.2038050  54.4963680
  18.4732450  80.0377920  55.3395070  18.1766870  79.3938280  54.0018820
  16.2143450  76.1834600  67.3034660  15.6839910  75.6925550  66.6758000
  16.8831520  76.6118800  66.7692590  20.5643670  79.2275660  51.7440780
  21.0849330  78.5124680  51.3781930  21.2112070  79.8661530  52.0441290
  25.1121510  80.6504060  67.0675850  25.5262530  80.8049140  67.9166270
  24.1772510  80.7759280  67.2301630  25.5843680  77.9900220  69.0715000
  26.1664450  77.2352540  68.9835480  25.7605450  78.5207660  68.2946480
  16.7015750  73.1496970  67.3831950  16.6072620  72.5317720  66.6582820
  16.1213140  73.8763260  67.1561860  19.4677190  71.7070210  64.4159340
  19.0194490  71.7294470  63.5704890  18.8342390  71.3089230  65.0129640
  22.2100640  78.3340720  66.4209620  22.3296850  77.7381860  67.1604460
  23.0694640  78.3710410  66.0010920  24.5488540  78.8877910  64.9972130
  24.0223760  79.4120530  64.3937270  24.8919880  79.5205300  65.6281860
  16.9474930  76.2771280  51.4421840  16.7463990  75.4138640  51.8035180
  16.7766980  76.1904640  50.5043440  18.9769410  74.8762070  67.6785440
  19.5669100  74.5677920  68.3663260  18.1589650  74.4041820  67.8345340
  23.7962840  74.4927880  67.9118460  23.1078360  73.8309420  67.8468450
  24.5168860  74.0466150  68.3566920  24.4263240  71.0879510  53.9708720
  24.7065530  70.2447410  54.3268140  23.6528970  71.3202620  54.4847470
  15.7457730  73.3771900  51.4299720  16.0483630  73.3839330  50.5218870
  16.4852320  73.0269760  51.9267380  18.9642660  72.3206520  52.4155920
  18.6164660  71.6430510  51.8358370  19.1655430  71.8596030  53.2299310
  28.8043960  80.3256240  54.5812630  29.5662870  80.8952890  54.6872320
  28.8198330  79.7583440  55.3520940  12.3048300  78.8494170  58.8120290
  11.6497140  78.5805810  58.1679990  13.1426250  78.7398650  58.3622270
  25.2538740  73.6435460  53.0338780  25.6723620  73.4566440  52.1935440
  24.9474800  72.7914510  53.3441710  28.7528470  78.5559600  56.7314580
  28.3772070  77.7887530  56.2995870  28.0231590  78.9382300  57.2189510
  13.3424230  79.2346740  63.3523630  13.7097270  79.1474140  64.2319650
  12.7735050  78.4713290  63.2530490  28.1428090  77.7031120  66.3654100
  27.9114180  77.4743870  65.4652050  28.4032640  78.6230670  66.3198990
  12.8940230  76.1455830  67.2582050  11.9996280  76.1122590  67.5975760
  13.4337780  76.3442620  68.0233300  26.5816160  72.9287550  69.1433800
  27.4586340  72.9370950  69.5267800  26.5937000  72.1918390  68.5326150
  11.5186380  76.0593100  54.7545620  10.6150460  76.3223300  54.5797280
  12.0027000  76.3304270  53.9745580  28.0279430  76.7817090  60.0321820
  28.5516910  76.2879740  59.4011990  28.6138850  76.9167450  60.7769390
  28.2069150  76.8656960  63.5541370  27.2571860  76.8320500  63.6686360
  28.3882160  77.7757070  63.3191140  14.0613590  75.1158640  52.6640000
  14.7705290  74.6941860  52.1787280  13.3453530  75.1833870  52.0323350
  13.7087750  71.1697970  51.7042650  14.4315880  71.7106910  52.0223870
  13.9812270  70.8961390  50.8284190  27.5179400  76.0390440  55.9714230
  28.0138520  75.8061310  56.7563110  27.3195470  75.2002280  55.5551870
  13.3979940  70.4204160  61.6065270  14.0456130  69.8701540  61.1660430
  13.8181780  70.6747310  62.4281080  28.9466560  74.6751390  58.5051910
  28.8365840  74.5207430  59.4434180  29.7074150  74.1472330  58.2627320
  27.2932280  70.6145520  64.9634910  27.9304500  71.2279660  65.3294100
  27.4407170  70.6506180  64.0184140  29.8356830  72.5059310  51.7458050
  30.7606140  72.3740490  51.5376340  29.8132620  72.5852130  52.6994500
  29.9095320  73.2769970  54.3714760  29.1146820  73.2115090  54.9007670
  30.1138600  74.2120610  54.3600110  13.1511940  70.5759830  64.3490590
  12.8026760  71.0323650  65.1148770  12.8199640  69.6816960  64.4313020
  20.6636760  71.7671710  67.8710010  20.6025650  72.3593540  68.6205420
  21.6037140  71.6597670  67.7260270  23.3011320  71.4241770  67.5102300
  23.9151730  71.7421060  66.8483380  23.8460880  70.9390360  68.1298160
  13.8232580  70.1036030  67.6241360  14.3715570  69.9224080  66.8607470
  13.8887890  69.3130140  68.1597670  24.0419360  69.9873910  63.8371590
  23.1679200  70.3209020  63.6344520  23.9330110  69.5147090  64.6623460
  24.9491340  72.1944780  65.2213310  24.6204700  71.3796540  64.8415040
  25.8973640  72.1514590  65.0979000  21.7894180  70.9043750  62.7764500
  21.0065970  71.3789250  63.0561260  21.4957110  69.9998580  62.6677680
  26.3415250  71.6066850  60.8213590  26.7823340  71.5511950  59.9735190
  26.0722840  72.5224860  60.8923770  28.2053820  71.2382090  58.8322410
  28.1442220  70.2943310  58.6853430  28.9845850  71.3462180  59.3775870
  13.1334590  71.2091230  55.2978220  13.8913950  71.3220110  54.7242250
  12.6711760  72.0460430  55.2521650  19.6748400  73.3230500  58.2880530
  18.8622910  72.9487390  57.9476410  20.1790040  72.5675580  58.5901720
  24.1773380  69.9872950  59.5263600  24.7802750  70.5593160  60.0012120
  23.4366370  70.5512390  59.3037500  27.3207980  70.3894510  54.8003880
  27.5158610  71.2877960  55.0671310  26.5337850  70.1581590  55.2936830
  15.5059740  71.7355280  53.8380190  16.0352500  70.9485080  53.7088140
  16.1388060  72.4146470  54.0715720  17.6997580  71.4730420  56.8925580
  17.0700320  70.7717730  57.0595710  17.1602720  72.2334550  56.6758740
  17.8253140  70.7514400  69.3278070  17.5437410  71.2548000  68.5638890
  18.2072840  69.9536150  68.9620200  24.4268600  70.1667980  69.9058540
  24.3134050  70.4862590  70.8010060  25.2438340  70.5680490  69.6095820
  23.3326750  78.1860450  40.2693280  23.2520800  77.2715060  39.9984990
  22.9191170  78.6827520  39.5632990  21.4644790  79.9639470  42.1502550
  20.6886890  79.4839910  42.4401120  22.1157720  79.2845120  41.9758710
  15.4810620  80.2759280  43.0278310  14.6495500  80.0207990  43.4274820
  16.0891600  80.3470050  43.7636230  13.8902570  75.2361170  36.8120700
  13.0019270  75.5777140  36.7100580  14.1743760  75.0361490  35.9201530
  11.8535580  77.8366820  42.6960400  12.4251690  77.0689020  42.6964040
  11.8537120  78.1355580  41.7867010  13.0960450  73.2451180  44.4829330
  12.9163290  72.3476930  44.7632090  12.6940530  73.7923050  45.1576280
  21.9358950  75.4467040  42.3841640  22.3123770  74.5738920  42.2715310
  21.8378460  75.7825740  41.4932080  16.0663960  73.8192670  37.8459080
  16.1730710  74.7196400  38.1527840  15.1556320  73.7710640  37.5553730
  25.7183070  72.9417480  39.3169980  26.5392690  72.4514050  39.3595460
  25.7517150  73.5315140  40.0701820  13.7147120  75.7411680  43.0911670
  14.3957230  76.0050050  43.7099070  13.3995170  74.9012550  43.4249680
  17.9071690  76.7879040  42.1784260  18.4149910  77.2860010  42.8189280
  18.4384930  76.0114240  42.0023620  30.0082620  74.9584230  45.8813610
  29.3034790  75.3465940  45.3628720  30.2740540  75.6534520  46.4834540
  16.1907790  71.4277600  46.4447680  16.1926230  71.9449990  45.6393580
  15.3612100  70.9507780  46.4217610  25.9544550  74.8817860  42.0897520
  25.2500120  75.1702750  42.6700630  26.3156710  75.6917970  41.7297080
  15.8723120  73.1387560  44.4518130  16.2139930  73.9829610  44.1572000
  14.9338930  73.2871300  44.5683470  29.0231470  74.3272650  42.4806730
  28.0756380  74.3611630  42.6122160  29.3481460  75.1411600  42.8656090
  19.5551010  70.6269830  40.7762720  19.8625990  70.0716720  40.0598220
  18.6251710  70.7614290  40.5935710  21.9431770  78.6918660  37.5122840
  21.0161050  78.6256040  37.7411310  22.0956590  79.6298790  37.3978080
  21.9300850  74.9635660  34.5090000  20.9904520  75.1249620  34.5942460
  22.2484110  75.6821340  33.9625990  28.4513610  79.6454180  44.4869030
  27.6232240  79.7147270  44.0119160  29.0464090  80.2308490  44.0184860
  25.9729060  80.2538960  38.0158090  25.3541480  79.9158510  37.3684390
  25.9553510  79.6098720  38.7237280  25.4155620  76.4323500  45.4323900
  25.0026800  77.2577210  45.6863890  24.6831570  75.8468540  45.2400260
  17.5488410  79.2183400  40.2942570  17.1445410  78.5060650  39.7988470
  17.6351530  78.8736640  41.1830610  16.2617030  75.9926610  44.0741610
  16.8131620  76.1021950  43.2994860  16.7760540  76.3664210  44.7896840
  24.1493760  79.4925770  35.0230840  24.5887040  78.6548200  34.8768660
  24.8622180  80.1255170  35.1094980  15.9359760  79.5145970  47.6846950
  15.7967530  80.3868770  48.0534350  15.0541120  79.1718780  47.5394890
  27.7310900  70.7468580  33.3371880  27.4183560  70.8395410  34.2370950
  28.4923370  71.3249610  33.2869310  14.2493040  78.1128380  37.7949220
  14.1290640  78.8390470  37.1830490  13.9393930  77.3431290  37.3177130
  28.9412190  75.4840080  49.3146020  28.3256460  75.9919750  48.7861480
  28.6208610  74.5838410  49.2571960  16.7156700  71.4563450  41.1772890
  16.2724850  72.2372990  40.8457410  17.2741690  71.7793340  41.8843830
  21.0026510  74.3231970  46.7808210  20.5405880  74.5314990  47.5928150
  20.6004620  73.5091320  46.4778880  26.0031020  75.5440920  47.9104870
  25.1524610  75.2446670  48.2313940  25.8432810  75.7882930  46.9988690
  23.0980730  77.0442670  50.0103660  23.4234140  76.2106420  49.6705890
  23.8861060  77.5671190  50.1581990  19.8315520  71.0774150  36.0578720
  19.2069700  71.0734020  36.7832030  19.7445640  70.2105110  35.6614690
  18.7532600  72.0010780  43.0362490  19.0504930  72.9073610  42.9554510
  19.3018160  71.5129560  42.4222060  16.5070920  76.5797020  38.9054140
  16.2811840  76.3634190  39.8100760  15.7263450  77.0125480  38.5600110
  23.7368680  76.5860390  37.5044790  23.1377570  77.3096190  37.3208410
  24.2848290  76.5237170  36.7221240  18.9470130  77.4782600  49.5714410
  18.8513730  76.5377330  49.4214810  19.7902110  77.6997670  49.1762480
  22.3433550  75.2223930  39.5348070  22.7363120  75.5396130  38.7216760
  22.7050400  74.3435810  39.6492590  14.0780670  73.8896270  47.7248190
  13.6844060  74.7371480  47.9320970  13.3899070  73.2522640  47.9156830
  20.6525720  73.9731240  50.7944930  19.9624040  73.7803440  51.4291020
  21.3958020  74.2565880  51.3269230  11.3797720  71.8124730  41.7578270
  11.0910770  72.3827590  42.4703250  12.1243480  71.3329180  42.1209500
  11.5667950  75.7544850  32.9680990  11.4842620  76.6975610  33.1095980
  11.2151010  75.6119760  32.0893340  22.9288690  77.8129680  43.6298850
  22.1969810  78.3216490  43.9788950  22.5313030  76.9959660  43.3287630
  19.3666080  74.4883880  42.0351340  19.3702140  74.0473830  41.1855880
  20.2617200  74.8101210  42.1423160  15.2168460  74.3710370  40.9945550
  14.8768510  74.8485600  41.7512600  14.4545780  73.9175490  40.6346650
  19.4286230  75.4895960  35.0258100  19.5499050  75.4482440  35.9743920
  19.0434740  76.3520110  34.8704830  23.3914600  73.2663360  43.0421790
  23.4087340  73.7172010  43.8863640  23.1430180  72.3669000  43.2555230
  18.4407730  77.7997100  34.4241400  17.8724630  77.3515350  33.7977310
  19.1496730  78.1589880  33.8906550  26.8185350  70.6795540  48.8808170
  27.1431120  69.9485200  49.4066150  26.8541860  70.3609180  47.9789160
  19.6674050  78.5485660  43.7816750  20.0344180  78.0744230  44.5278090
  19.4779110  79.4227230  44.1225090  12.5314540  73.2929350  39.9110220
  12.2461460  72.9285020  40.7488840  12.4693400  72.5609810  39.2973360
  17.4573420  77.5894300  46.1000960  17.1530490  78.4686280  46.3251320
  18.4119880  77.6494090  46.1358400  22.2053130  72.1858610  36.6323590
  21.3917740  71.6871780  36.5568900  22.0115080  73.0256860  36.2159940
  22.1261990  80.8629710  48.3763200  22.0599300  79.9425380  48.1220790
  21.4967130  80.9605150  49.0907840  24.9201520  76.5578260  34.9285750
  25.8081140  76.8695490  34.7537090  24.8906610  75.6850510  34.5366330
  13.5137150  78.4297040  47.2472320  13.1552090  79.0950890  47.8345660
  13.2191710  77.5980590  47.6184940  16.7150270  78.8881280  50.1311870
  16.4150410  79.0338460  49.2339690  17.4861510  78.3286570  50.0385260
  27.1915790  77.8690100  34.3965610  27.1079510  78.3004320  33.5462050
  27.9109980  78.3288450  34.8292430  28.2689930  80.3257620  47.4735580
  27.5438120  80.9186400  47.2764970  28.7965390  80.3181160  46.6748950
  12.0245200  78.4288300  33.8706920  12.8940050  78.7113100  34.1542840
  11.5335520  79.2424170  33.7555730  19.1880010  79.8161510  37.9915200
  19.6442790  80.6266760  38.2175390  18.8368220  79.4984650  38.8233690
  15.0891790  70.1599160  38.4637720  14.9606420  70.1517060  39.4122640
  14.2653810  70.4982250  38.1128730  12.0885720  71.9190280  47.9244420
  11.3744240  72.1187200  48.5297030  12.5080760  71.1429850  48.2959220
  14.0091710  80.2461770  35.9988980  13.4019660  80.9860670  36.0084280
  14.4841060  80.3361130  35.1727180  23.5824500  74.4112590  45.6745870
  23.9505320  73.5907800  46.0025440  22.7222700  74.4714480  46.0901520
  26.9486530  73.3669530  36.4833430  26.3199690  73.4715200  35.7691660
  26.4538450  73.5866310  37.2727310  18.9170560  75.6455480  37.8991310
  18.2086710  76.1141820  38.3404920  19.2015040  74.9877490  38.5336500
  20.5426490  77.0652180  45.8983840  21.0411740  77.5398000  46.5635690
  20.6849440  76.1415700  46.1053870  22.9485990  72.3706140  39.3387100
  22.8253770  72.3892270  38.3896610  23.8970550  72.4185080  39.4585500
  17.1205580  73.9540560  35.2742020  17.9696110  74.3910710  35.2082210
  16.7536850  74.2660820  36.1014080  27.7493350  73.2820140  46.7412230
  27.2466950  74.0225540  47.0806040  28.5650010  73.6704140  46.4249020
  26.0415360  78.5253320  40.1873590  25.1005500  78.5403550  40.3621280
  26.3559430  77.7389280  40.6333890  16.0197000  80.2072920  33.7477550
  16.7860270  80.0954280  34.3102980  16.0971690  79.5110890  33.0954320
  14.7143760  77.6397990  34.4310440  14.7947350  76.6925500  34.5427840
  15.6063510  77.9704870  34.5371100  12.2414560  79.4612910  49.6666610
  12.7453580  78.8820190  50.2382840  11.5021980  79.7453140  50.2042980
  14.2737640  77.6042500  50.5616680  14.3142980  77.3056370  51.4701910
  15.1283140  78.0050110  50.4024200  18.0516030  80.2038050  35.7220190
  18.4732450  80.0377920  36.5651580  18.1766870  79.3938280  35.2275330
  16.2143450  76.1834600  48.5291170  15.6839910  75.6925550  47.9014510
  16.8831520  76.6118800  47.9949100  20.5643670  79.2275660  32.9697290
  21.0849330  78.5124680  32.6038440  21.2112070  79.8661530  33.2697800
  25.1121510  80.6504060  48.2932360  25.5262530  80.8049140  49.1422780
  24.1772510  80.7759280  48.4558140  25.5843680  77.9900220  50.2971510
  26.1664450  77.2352540  50.2091990  25.7605450  78.5207660  49.5202990
  16.7015750  73.1496970  48.6088460  16.6072620  72.5317720  47.8839330
  16.1213140  73.8763260  48.3818370  19.4677190  71.7070210  45.6415850
  19.0194490  71.7294470  44.7961400  18.8342390  71.3089230  46.2386150
  22.2100640  78.3340720  47.6466130  22.3296850  77.7381860  48.3860970
  23.0694640  78.3710410  47.2267430  24.5488540  78.8877910  46.2228640
  24.0223760  79.4120530  45.6193780  24.8919880  79.5205300  46.8538370
  16.9474930  76.2771280  32.6678350  16.7463990  75.4138640  33.0291690
  16.7766980  76.1904640  31.7299950  18.9769410  74.8762070  48.9041950
  19.5669100  74.5677920  49.5919770  18.1589650  74.4041820  49.0601850
  23.7962840  74.4927880  49.1374970  23.1078360  73.8309420  49.0724960
  24.5168860  74.0466150  49.5823430  24.4263240  71.0879510  35.1965230
  24.7065530  70.2447410  35.5524650  23.6528970  71.3202620  35.7103980
  15.7457730  73.3771900  32.6556230  16.0483630  73.3839330  31.7475380
  16.4852320  73.0269760  33.1523890  18.9642660  72.3206520  33.6412430
  18.6164660  71.6430510  33.0614880  19.1655430  71.8596030  34.4555820
  28.8043960  80.3256240  35.8069140  29.5662870  80.8952890  35.9128830
  28.8198330  79.7583440  36.5777450  12.3048300  78.8494170  40.0376800
  11.6497140  78.5805810  39.3936500  13.1426250  78.7398650  39.5878780
  25.2538740  73.6435460  34.2595290  25.6723620  73.4566440  33.4191950
  24.9474800  72.7914510  34.5698220  28.7528470  78.5559600  37.9571090
  28.3772070  77.7887530  37.5252380  28.0231590  78.9382300  38.4446020
  13.3424230  79.2346740  44.5780140  13.7097270  79.1474140  45.4576160
  12.7735050  78.4713290  44.4787000  28.1428090  77.7031120  47.5910610
  27.9114180  77.4743870  46.6908560  28.4032640  78.6230670  47.5455500
  12.8940230  76.1455830  48.4838560  11.9996280  76.1122590  48.8232270
  13.4337780  76.3442620  49.2489810  26.5816160  72.9287550  50.3690310
  27.4586340  72.9370950  50.7524310  26.5937000  72.1918390  49.7582660
  11.5186380  76.0593100  35.9802130  10.6150460  76.3223300  35.8053790
  12.0027000  76.3304270  35.2002090  28.0279430  76.7817090  41.2578330
  28.5516910  76.2879740  40.6268500  28.6138850  76.9167450  42.0025900
  28.2069150  76.8656960  44.7797880  27.2571860  76.8320500  44.8942870
  28.3882160  77.7757070  44.5447650  14.0613590  75.1158640  33.8896510
  14.7705290  74.6941860  33.4043790  13.3453530  75.1833870  33.2579860
  13.7087750  71.1697970  32.9299160  14.4315880  71.7106910  33.2480380
  13.9812270  70.8961390  32.0540700  27.5179400  76.0390440  37.1970740
  28.0138520  75.8061310  37.9819620  27.3195470  75.2002280  36.7808380
  13.3979940  70.4204160  42.8321780  14.0456130  69.8701540  42.3916940
  13.8181780  70.6747310  43.6537590  28.9466560  74.6751390  39.7308420
  28.8365840  74.5207430  40.6690690  29.7074150  74.1472330  39.4883830
  27.2932280  70.6145520  46.1891420  27.9304500  71.2279660  46.5550610
  27.4407170  70.6506180  45.2440650  29.8356830  72.5059310  32.9714560
  30.7606140  72.3740490  32.7632850  29.8132620  72.5852130  33.9251010
  29.9095320  73.2769970  35.5971270  29.1146820  73.2115090  36.1264180
  30.1138600  74.2120610  35.5856620  13.1511940  70.5759830  45.5747100
  12.8026760  71.0323650  46.3405280  12.8199640  69.6816960  45.6569530
  20.6636760  71.7671710  49.0966520  20.6025650  72.3593540  49.8461930
  21.6037140  71.6597670  48.9516780  23.3011320  71.4241770  48.7358810
  23.9151730  71.7421060  48.0739890  23.8460880  70.9390360  49.3554670
  13.8232580  70.1036030  48.8497870  14.3715570  69.9224080  48.0863980
  13.8887890  69.3130140  49.3854180  24.0419360  69.9873910  45.0628100
  23.1679200  70.3209020  44.8601030  23.9330110  69.5147090  45.8879970
  24.9491340  72.1944780  46.4469820  24.6204700  71.3796540  46.0671550
  25.8973640  72.1514590  46.3235510  21.7894180  70.9043750  44.0021010
  21.0065970  71.3789250  44.2817770  21.4957110  69.9998580  43.8934190
  26.3415250  71.6066850  42.0470100  26.7823340  71.5511950  41.1991700
  26.0722840  72.5224860  42.1180280  28.2053820  71.2382090  40.0578920
  28.1442220  70.2943310  39.9109940  28.9845850  71.3462180  40.6032380
  13.1334590  71.2091230  36.5234730  13.8913950  71.3220110  35.9498760
  12.6711760  72.0460430  36.4778160  19.6748400  73.3230500  39.5137040
  18.8622910  72.9487390  39.1732920  20.1790040  72.5675580  39.8158230
  24.1773380  69.9872950  40.7520110  24.7802750  70.5593160  41.2268630
  23.4366370  70.5512390  40.5294010  27.3207980  70.3894510  36.0260390
  27.5158610  71.2877960  36.2927820  26.5337850  70.1581590  36.5193340
  15.5059740  71.7355280  35.0636700  16.0352500  70.9485080  34.9344650
  16.1388060  72.4146470  35.2972230  17.6997580  71.4730420  38.1182090
  17.0700320  70.7717730  38.2852220  17.1602720  72.2334550  37.9015250
  17.8253140  70.7514400  50.5534580  17.5437410  71.2548000  49.7895400
  18.2072840  69.9536150  50.1876710  24.4268600  70.1667980  51.1315050
  24.3134050  70.4862590  52.0266570  25.2438340  70.5680490  50.8352330
  23.3326750  78.1860450  21.4949790  23.2520800  77.2715060  21.2241500
  22.9191170  78.6827520  20.7889500  21.4644790  79.9639470  23.3759060
  20.6886890  79.4839910  23.6657630  22.1157720  79.2845120  23.2015220
  15.4810620  80.2759280  24.2534820  14.6495500  80.0207990  24.6531330
  16.0891600  80.3470050  24.9892740  13.8902570  75.2361170  18.0377210
  13.0019270  75.5777140  17.9357090  14.1743760  75.0361490  17.1458040
  11.8535580  77.8366820  23.9216910  12.4251690  77.0689020  23.9220550
  11.8537120  78.1355580  23.0123520  13.0960450  73.2451180  25.7085840
  12.9163290  72.3476930  25.9888600  12.6940530  73.7923050  26.3832790
  21.9358950  75.4467040  23.6098150  22.3123770  74.5738920  23.4971820
  21.8378460  75.7825740  22.7188590  16.0663960  73.8192670  19.0715590
  16.1730710  74.7196400  19.3784350  15.1556320  73.7710640  18.7810240
  25.7183070  72.9417480  20.5426490  26.5392690  72.4514050  20.5851970
  25.7517150  73.5315140  21.2958330  13.7147120  75.7411680  24.3168180
  14.3957230  76.0050050  24.9355580  13.3995170  74.9012550  24.6506190
  17.9071690  76.7879040  23.4040770  18.4149910  77.2860010  24.0445790
  18.4384930  76.0114240  23.2280130  30.0082620  74.9584230  27.1070120
  29.3034790  75.3465940  26.5885230  30.2740540  75.6534520  27.7091050
  16.1907790  71.4277600  27.6704190  16.1926230  71.9449990  26.8650090
  15.3612100  70.9507780  27.6474120  25.9544550  74.8817860  23.3154030
  25.2500120  75.1702750  23.8957140  26.3156710  75.6917970  22.9553590
  15.8723120  73.1387560  25.6774640  16.2139930  73.9829610  25.3828510
  14.9338930  73.2871300  25.7939980  29.0231470  74.3272650  23.7063240
  28.0756380  74.3611630  23.8378670  29.3481460  75.1411600  24.0912600
  19.5551010  70.6269830  22.0019230  19.8625990  70.0716720  21.2854730
  18.6251710  70.7614290  21.8192220  21.9431770  78.6918660  18.7379350
  21.0161050  78.6256040  18.9667820  22.0956590  79.6298790  18.6234590
  21.9300850  74.9635660  15.7346510  20.9904520  75.1249620  15.8198970
  22.2484110  75.6821340  15.1882500  28.4513610  79.6454180  25.7125540
  27.6232240  79.7147270  25.2375670  29.0464090  80.2308490  25.2441370
  25.9729060  80.2538960  19.2414600  25.3541480  79.9158510  18.5940900
  25.9553510  79.6098720  19.9493790  25.4155620  76.4323500  26.6580410
  25.0026800  77.2577210  26.9120400  24.6831570  75.8468540  26.4656770
  17.5488410  79.2183400  21.5199080  17.1445410  78.5060650  21.0244980
  17.6351530  78.8736640  22.4087120  16.2617030  75.9926610  25.2998120
  16.8131620  76.1021950  24.5251370  16.7760540  76.3664210  26.0153350
  24.1493760  79.4925770  16.2487350  24.5887040  78.6548200  16.1025170
  24.8622180  80.1255170  16.3351490  15.9359760  79.5145970  28.9103460
  15.7967530  80.3868770  29.2790860  15.0541120  79.1718780  28.7651400
  27.7310900  70.7468580  14.5628390  27.4183560  70.8395410  15.4627460
  28.4923370  71.3249610  14.5125820  14.2493040  78.1128380  19.0205730
  14.1290640  78.8390470  18.4087000  13.9393930  77.3431290  18.5433640
  28.9412190  75.4840080  30.5402530  28.3256460  75.9919750  30.0117990
  28.6208610  74.5838410  30.4828470  16.7156700  71.4563450  22.4029400
  16.2724850  72.2372990  22.0713920  17.2741690  71.7793340  23.1100340
  21.0026510  74.3231970  28.0064720  20.5405880  74.5314990  28.8184660
  20.6004620  73.5091320  27.7035390  26.0031020  75.5440920  29.1361380
  25.1524610  75.2446670  29.4570450  25.8432810  75.7882930  28.2245200
  23.0980730  77.0442670  31.2360170  23.4234140  76.2106420  30.8962400
  23.8861060  77.5671190  31.3838500  19.8315520  71.0774150  17.2835230
  19.2069700  71.0734020  18.0088540  19.7445640  70.2105110  16.8871200
  18.7532600  72.0010780  24.2619000  19.0504930  72.9073610  24.1811020
  19.3018160  71.5129560  23.6478570  16.5070920  76.5797020  20.1310650
  16.2811840  76.3634190  21.0357270  15.7263450  77.0125480  19.7856620
  23.7368680  76.5860390  18.7301300  23.1377570  77.3096190  18.5464920
  24.2848290  76.5237170  17.9477750  18.9470130  77.4782600  30.7970920
  18.8513730  76.5377330  30.6471320  19.7902110  77.6997670  30.4018990
  22.3433550  75.2223930  20.7604580  22.7363120  75.5396130  19.9473270
  22.7050400  74.3435810  20.8749100  14.0780670  73.8896270  28.9504700
  13.6844060  74.7371480  29.1577480  13.3899070  73.2522640  29.1413340
  20.6525720  73.9731240  32.0201440  19.9624040  73.7803440  32.6547530
  21.3958020  74.2565880  32.5525740  11.3797720  71.8124730  22.9834780
  11.0910770  72.3827590  23.6959760  12.1243480  71.3329180  23.3466010
  11.5667950  75.7544850  14.1937500  11.4842620  76.6975610  14.3352490
  11.2151010  75.6119760  13.3149850  22.9288690  77.8129680  24.8555360
  22.1969810  78.3216490  25.2045460  22.5313030  76.9959660  24.5544140
  19.3666080  74.4883880  23.2607850  19.3702140  74.0473830  22.4112390
  20.2617200  74.8101210  23.3679670  15.2168460  74.3710370  22.2202060
  14.8768510  74.8485600  22.9769110  14.4545780  73.9175490  21.8603160
  19.4286230  75.4895960  16.2514610  19.5499050  75.4482440  17.2000430
  19.0434740  76.3520110  16.0961340  23.3914600  73.2663360  24.2678300
  23.4087340  73.7172010  25.1120150  23.1430180  72.3669000  24.4811740
  18.4407730  77.7997100  15.6497910  17.8724630  77.3515350  15.0233820
  19.1496730  78.1589880  15.1163060  26.8185350  70.6795540  30.1064680
  27.1431120  69.9485200  30.6322660  26.8541860  70.3609180  29.2045670
  19.6674050  78.5485660  25.0073260  20.0344180  78.0744230  25.7534600
  19.4779110  79.4227230  25.3481600  12.5314540  73.2929350  21.1366730
  12.2461460  72.9285020  21.9745350  12.4693400  72.5609810  20.5229870
  17.4573420  77.5894300  27.3257470  17.1530490  78.4686280  27.5507830
  18.4119880  77.6494090  27.3614910  22.2053130  72.1858610  17.8580100
  21.3917740  71.6871780  17.7825410  22.0115080  73.0256860  17.4416450
  22.1261990  80.8629710  29.6019710  22.0599300  79.9425380  29.3477300
  21.4967130  80.9605150  30.3164350  24.9201520  76.5578260  16.1542260
  25.8081140  76.8695490  15.9793600  24.8906610  75.6850510  15.7622840
  13.5137150  78.4297040  28.4728830  13.1552090  79.0950890  29.0602170
  13.2191710  77.5980590  28.8441450  16.7150270  78.8881280  31.3568380
  16.4150410  79.0338460  30.4596200  17.4861510  78.3286570  31.2641770
  27.1915790  77.8690100  15.6222120  27.1079510  78.3004320  14.7718560
  27.9109980  78.3288450  16.0548940  28.2689930  80.3257620  28.6992090
  27.5438120  80.9186400  28.5021480  28.7965390  80.3181160  27.9005460
  12.0245200  78.4288300  15.0963430  12.8940050  78.7113100  15.3799350
  11.5335520  79.2424170  14.9812240  19.1880010  79.8161510  19.2171710
  19.6442790  80.6266760  19.4431900  18.8368220  79.4984650  20.0490200
  15.0891790  70.1599160  19.6894230  14.9606420  70.1517060  20.6379150
  14.2653810  70.4982250  19.3385240  12.0885720  71.9190280  29.1500930
  11.3744240  72.1187200  29.7553540  12.5080760  71.1429850  29.5215730
  14.0091710  80.2461770  17.2245490  13.4019660  80.9860670  17.2340790
  14.4841060  80.3361130  16.3983690  23.5824500  74.4112590  26.9002380
  23.9505320  73.5907800  27.2281950  22.7222700  74.4714480  27.3158030
  26.9486530  73.3669530  17.7089940  26.3199690  73.4715200  16.9948170
  26.4538450  73.5866310  18.4983820  18.9170560  75.6455480  19.1247820
  18.2086710  76.1141820  19.5661430  19.2015040  74.9877490  19.7593010
  20.5426490  77.0652180  27.1240350  21.0411740  77.5398000  27.7892200
  20.6849440  76.1415700  27.3310380  22.9485990  72.3706140  20.5643610
  22.8253770  72.3892270  19.6153120  23.8970550  72.4185080  20.6842010
  17.1205580  73.9540560  16.4998530  17.9696110  74.3910710  16.4338720
  16.7536850  74.2660820  17.3270590  27.7493350  73.2820140  27.9668740
  27.2466950  74.0225540  28.3062550  28.5650010  73.6704140  27.6505530
  26.0415360  78.5253320  21.4130100  25.1005500  78.5403550  21.5877790
  26.3559430  77.7389280  21.8590400  16.0197000  80.2072920  14.9734060
  16.7860270  80.0954280  15.5359490  16.0971690  79.5110890  14.3210830
  14.7143760  77.6397990  15.6566950  14.7947350  76.6925500  15.7684350
  15.6063510  77.9704870  15.7627610  12.2414560  79.4612910  30.8923120
  12.7453580  78.8820190  31.4639350  11.5021980  79.7453140  31.4299490
  14.2737640  77.6042500  31.7873190  14.3142980  77.3056370  32.6958420
  15.1283140  78.0050110  31.6280710  18.0516030  80.2038050  16.9476700
  18.4732450  80.0377920  17.7908090  18.1766870  79.3938280  16.4531840
  16.2143450  76.1834600  29.7547680  15.6839910  75.6925550  29.1271020
  16.8831520  76.6118800  29.2205610  20.5643670  79.2275660  14.1953800
  21.0849330  78.5124680  13.8294950  21.2112070  79.8661530  14.4954310
  25.1121510  80.6504060  29.5188870  25.5262530  80.8049140  30.3679290
  24.1772510  80.7759280  29.6814650  25.5843680  77.9900220  31.5228020
  26.1664450  77.2352540  31.4348500  25.7605450  78.5207660  30.7459500
  16.7015750  73.1496970  29.8344970  16.6072620  72.5317720  29.1095840
  16.1213140  73.8763260  29.6074880  19.4677190  71.7070210  26.8672360
  19.0194490  71.7294470  26.0217910  18.8342390  71.3089230  27.4642660
  22.2100640  78.3340720  28.8722640  22.3296850  77.7381860  29.6117480
  23.0694640  78.3710410  28.4523940  24.5488540  78.8877910  27.4485150
  24.0223760  79.4120530  26.8450290  24.8919880  79.5205300  28.0794880
  16.9474930  76.2771280  13.8934860  16.7463990  75.4138640  14.2548200
  16.7766980  76.1904640  12.9556460  18.9769410  74.8762070  30.1298460
  19.5669100  74.5677920  30.8176280  18.1589650  74.4041820  30.2858360
  23.7962840  74.4927880  30.3631480  23.1078360  73.8309420  30.2981470
  24.5168860  74.0466150  30.8079940  24.4263240  71.0879510  16.4221740
  24.7065530  70.2447410  16.7781160  23.6528970  71.3202620  16.9360490
  15.7457730  73.3771900  13.8812740  16.0483630  73.3839330  12.9731890
  16.4852320  73.0269760  14.3780400  18.9642660  72.3206520  14.8668940
  18.6164660  71.6430510  14.2871390  19.1655430  71.8596030  15.6812330
  28.8043960  80.3256240  17.0325650  29.5662870  80.8952890  17.1385340
  28.8198330  79.7583440  17.8033960  12.3048300  78.8494170  21.2633310
  11.6497140  78.5805810  20.6193010  13.1426250  78.7398650  20.8135290
  25.2538740  73.6435460  15.4851800  25.6723620  73.4566440  14.6448460
  24.9474800  72.7914510  15.7954730  28.7528470  78.5559600  19.1827600
  28.3772070  77.7887530  18.7508890  28.0231590  78.9382300  19.6702530
  13.3424230  79.2346740  25.8036650  13.7097270  79.1474140  26.6832670
  12.7735050  78.4713290  25.7043510  28.1428090  77.7031120  28.8167120
  27.9114180  77.4743870  27.9165070  28.4032640  78.6230670  28.7712010
  12.8940230  76.1455830  29.7095070  11.9996280  76.1122590  30.0488780
  13.4337780  76.3442620  30.4746320  26.5816160  72.9287550  31.5946820
  27.4586340  72.9370950  31.9780820  26.5937000  72.1918390  30.9839170
  11.5186380  76.0593100  17.2058640  10.6150460  76.3223300  17.0310300
  12.0027000  76.3304270  16.4258600  28.0279430  76.7817090  22.4834840
  28.5516910  76.2879740  21.8525010  28.6138850  76.9167450  23.2282410
  28.2069150  76.8656960  26.0054390  27.2571860  76.8320500  26.1199380
  28.3882160  77.7757070  25.7704160  14.0613590  75.1158640  15.1153020
  14.7705290  74.6941860  14.6300300  13.3453530  75.1833870  14.4836370
  13.7087750  71.1697970  14.1555670  14.4315880  71.7106910  14.4736890
  13.9812270  70.8961390  13.2797210  27.5179400  76.0390440  18.4227250
  28.0138520  75.8061310  19.2076130  27.3195470  75.2002280  18.0064890
  13.3979940  70.4204160  24.0578290  14.0456130  69.8701540  23.6173450
  13.8181780  70.6747310  24.8794100  28.9466560  74.6751390  20.9564930
  28.8365840  74.5207430  21.8947200  29.7074150  74.1472330  20.7140340
  27.2932280  70.6145520  27.4147930  27.9304500  71.2279660  27.7807120
  27.4407170  70.6506180  26.4697160  29.8356830  72.5059310  14.1971070
  30.7606140  72.3740490  13.9889360  29.8132620  72.5852130  15.1507520
  29.9095320  73.2769970  16.8227780  29.1146820  73.2115090  17.3520690
  30.1138600  74.2120610  16.8113130  13.1511940  70.5759830  26.8003610
  12.8026760  71.0323650  27.5661790  12.8199640  69.6816960  26.8826040
  20.6636760  71.7671710  30.3223030  20.6025650  72.3593540  31.0718440
  21.6037140  71.6597670  30.1773290  23.3011320  71.4241770  29.9615320
  23.9151730  71.7421060  29.2996400  23.8460880  70.9390360  30.5811180
  13.8232580  70.1036030  30.0754380  14.3715570  69.9224080  29.3120490
  13.8887890  69.3130140  30.6110690  24.0419360  69.9873910  26.2884610
  23.1679200  70.3209020  26.0857540  23.9330110  69.5147090  27.1136480
  24.9491340  72.1944780  27.6726330  24.6204700  71.3796540  27.2928060
  25.8973640  72.1514590  27.5492020  21.7894180  70.9043750  25.2277520
  21.0065970  71.3789250  25.5074280  21.4957110  69.9998580  25.1190700
  26.3415250  71.6066850  23.2726610  26.7823340  71.5511950  22.4248210
  26.0722840  72.5224860  23.3436790  28.2053820  71.2382090  21.2835430
  28.1442220  70.2943310  21.1366450  28.9845850  71.3462180  21.8288890
  13.1334590  71.2091230  17.7491240  13.8913950  71.3220110  17.1755270
  12.6711760  72.0460430  17.7034670  19.6748400  73.3230500  20.7393550
  18.8622910  72.9487390  20.3989430  20.1790040  72.5675580  21.0414740
  24.1773380  69.9872950  21.9776620  24.7802750  70.5593160  22.4525140
  23.4366370  70.5512390  21.7550520  27.3207980  70.3894510  17.2516900
  27.5158610  71.2877960  17.5184330  26.5337850  70.1581590  17.7449850
  15.5059740  71.7355280  16.2893210  16.0352500  70.9485080  16.1601160
  16.1388060  72.4146470  16.5228740  17.6997580  71.4730420  19.3438600
  17.0700320  70.7717730  19.5108730  17.1602720  72.2334550  19.1271760
  17.8253140  70.7514400  31.7791090  17.5437410  71.2548000  31.0151910
  18.2072840  69.9536150  31.4133220  24.4268600  70.1667980  32.3571560
  24.3134050  70.4862590  33.2523080  25.2438340  70.5680490  32.0608840
  23.3326750  78.1860450   2.7206300  23.2520800  77.2715060   2.4498010
  22.9191170  78.6827520   2.0146010  21.4644790  79.9639470   4.6015570
  20.6886890  79.4839910   4.8914140  22.1157720  79.2845120   4.4271730
  15.4810620  80.2759280   5.4791330  14.6495500  80.0207990   5.8787840
  16.0891600  80.3470050   6.2149250  11.8535580  77.8366820   5.1473420
  12.4251690  77.0689020   5.1477060  11.8537120  78.1355580   4.2380030
  13.0960450  73.2451180   6.9342350  12.9163290  72.3476930   7.2145110
  12.6940530  73.7923050   7.6089300  21.9358950  75.4467040   4.8354660
  22.3123770  74.5738920   4.7228330  21.8378460  75.7825740   3.9445100
  25.7183070  72.9417480   1.7683000  26.5392690  72.4514050   1.8108480
  25.7517150  73.5315140   2.5214840  13.7147120  75.7411680   5.5424690
  14.3957230  76.0050050   6.1612090  13.3995170  74.9012550   5.8762700
  17.9071690  76.7879040   4.6297280  18.4149910  77.2860010   5.2702300
  18.4384930  76.0114240   4.4536640  30.0082620  74.9584230   8.3326630
  29.3034790  75.3465940   7.8141740  30.2740540  75.6534520   8.9347560
  16.1907790  71.4277600   8.8960700  16.1926230  71.9449990   8.0906600
  15.3612100  70.9507780   8.8730630  25.9544550  74.8817860   4.5410540
  25.2500120  75.1702750   5.1213650  26.3156710  75.6917970   4.1810100
  15.8723120  73.1387560   6.9031150  16.2139930  73.9829610   6.6085020
  14.9338930  73.2871300   7.0196490  29.0231470  74.3272650   4.9319750
  28.0756380  74.3611630   5.0635180  29.3481460  75.1411600   5.3169110
  19.5551010  70.6269830   3.2275740  19.8625990  70.0716720   2.5111240
  18.6251710  70.7614290   3.0448730  28.4513610  79.6454180   6.9382050
  27.6232240  79.7147270   6.4632180  29.0464090  80.2308490   6.4697880
  25.4155620  76.4323500   7.8836920  25.0026800  77.2577210   8.1376910
  24.6831570  75.8468540   7.6913280  17.5488410  79.2183400   2.7455590
  17.1445410  78.5060650   2.2501490  17.6351530  78.8736640   3.6343630
  16.2617030  75.9926610   6.5254630  16.8131620  76.1021950   5.7507880
  16.7760540  76.3664210   7.2409860  15.9359760  79.5145970  10.1359970
  15.7967530  80.3868770  10.5047370  15.0541120  79.1718780   9.9907910
  28.9412190  75.4840080  11.7659040  28.3256460  75.9919750  11.2374500
  28.6208610  74.5838410  11.7084980  16.7156700  71.4563450   3.6285910
  16.2724850  72.2372990   3.2970430  17.2741690  71.7793340   4.3356850
  21.0026510  74.3231970   9.2321230  20.5405880  74.5314990  10.0441170
  20.6004620  73.5091320   8.9291900  26.0031020  75.5440920  10.3617890
  25.1524610  75.2446670  10.6826960  25.8432810  75.7882930   9.4501710
  23.0980730  77.0442670  12.4616680  23.4234140  76.2106420  12.1218910
  23.8861060  77.5671190  12.6095010  18.7532600  72.0010780   5.4875510
  19.0504930  72.9073610   5.4067530  19.3018160  71.5129560   4.8735080
  18.9470130  77.4782600  12.0227430  18.8513730  76.5377330  11.8727830
  19.7902110  77.6997670  11.6275500  14.0780670  73.8896270  10.1761210
  13.6844060  74.7371480  10.3833990  13.3899070  73.2522640  10.3669850
  20.6525720  73.9731240  13.2457950  19.9624040  73.7803440  13.8804040
  21.3958020  74.2565880  13.7782250  11.3797720  71.8124730   4.2091290
  11.0910770  72.3827590   4.9216270  12.1243480  71.3329180   4.5722520
  22.9288690  77.8129680   6.0811870  22.1969810  78.3216490   6.4301970
  22.5313030  76.9959660   5.7800650  19.3666080  74.4883880   4.4864360
  19.3702140  74.0473830   3.6368900  20.2617200  74.8101210   4.5936180
  15.2168460  74.3710370   3.4458570  14.8768510  74.8485600   4.2025620
  14.4545780  73.9175490   3.0859670  23.3914600  73.2663360   5.4934810
  23.4087340  73.7172010   6.3376660  23.1430180  72.3669000   5.7068250
  26.8185350  70.6795540  11.3321190  27.1431120  69.9485200  11.8579170
  26.8541860  70.3609180  10.4302180  19.6674050  78.5485660   6.2329770
  20.0344180  78.0744230   6.9791110  19.4779110  79.4227230   6.5738110
  12.5314540  73.2929350   2.3623240  12.2461460  72.9285020   3.2001860
  12.4693400  72.5609810   1.7486380  17.4573420  77.5894300   8.5513980
  17.1530490  78.4686280   8.7764340  18.4119880  77.6494090   8.5871420
  22.1261990  80.8629710  10.8276220  22.0599300  79.9425380  10.5733810
  21.4967130  80.9605150  11.5420860  13.5137150  78.4297040   9.6985340
  13.1552090  79.0950890  10.2858680  13.2191710  77.5980590  10.0697960
  16.7150270  78.8881280  12.5824890  16.4150410  79.0338460  11.6852710
  17.4861510  78.3286570  12.4898280  28.2689930  80.3257620   9.9248600
  27.5438120  80.9186400   9.7277990  28.7965390  80.3181160   9.1261970
  12.0885720  71.9190280  10.3757440  11.3744240  72.1187200  10.9810050
  12.5080760  71.1429850  10.7472240  23.5824500  74.4112590   8.1258890
  23.9505320  73.5907800   8.4538460  22.7222700  74.4714480   8.5414540
  20.5426490  77.0652180   8.3496860  21.0411740  77.5398000   9.0148710
  20.6849440  76.1415700   8.5566890  27.7493350  73.2820140   9.1925250
  27.2466950  74.0225540   9.5319060  28.5650010  73.6704140   8.8762040
  26.0415360  78.5253320   2.6386610  25.1005500  78.5403550   2.8134300
  26.3559430  77.7389280   3.0846910  12.2414560  79.4612910  12.1179630
  12.7453580  78.8820190  12.6895860  11.5021980  79.7453140  12.6556000
  14.2737640  77.6042500  13.0129700  14.3142980  77.3056370  13.9214930
  15.1283140  78.0050110  12.8537220  16.2143450  76.1834600  10.9804190
  15.6839910  75.6925550  10.3527530  16.8831520  76.6118800  10.4462120
  25.1121510  80.6504060  10.7445380  25.5262530  80.8049140  11.5935800
  24.1772510  80.7759280  10.9071160  25.5843680  77.9900220  12.7484530
  26.1664450  77.2352540  12.6605010  25.7605450  78.5207660  11.9716010
  16.7015750  73.1496970  11.0601480  16.6072620  72.5317720  10.3352350
  16.1213140  73.8763260  10.8331390  19.4677190  71.7070210   8.0928870
  19.0194490  71.7294470   7.2474420  18.8342390  71.3089230   8.6899170
  22.2100640  78.3340720  10.0979150  22.3296850  77.7381860  10.8373990
  23.0694640  78.3710410   9.6780450  24.5488540  78.8877910   8.6741660
  24.0223760  79.4120530   8.0706800  24.8919880  79.5205300   9.3051390
  18.9769410  74.8762070  11.3554970  19.5669100  74.5677920  12.0432790
  18.1589650  74.4041820  11.5114870  23.7962840  74.4927880  11.5887990
  23.1078360  73.8309420  11.5237980  24.5168860  74.0466150  12.0336450
  12.3048300  78.8494170   2.4889820  11.6497140  78.5805810   1.8449520
  13.1426250  78.7398650   2.0391800  13.3424230  79.2346740   7.0293160
  13.7097270  79.1474140   7.9089180  12.7735050  78.4713290   6.9300020
  28.1428090  77.7031120  10.0423630  27.9114180  77.4743870   9.1421580
  28.4032640  78.6230670   9.9968520  12.8940230  76.1455830  10.9351580
  11.9996280  76.1122590  11.2745290  13.4337780  76.3442620  11.7002830
  26.5816160  72.9287550  12.8203330  27.4586340  72.9370950  13.2037330
  26.5937000  72.1918390  12.2095680  28.0279430  76.7817090   3.7091350
  28.5516910  76.2879740   3.0781520  28.6138850  76.9167450   4.4538920
  28.2069150  76.8656960   7.2310900  27.2571860  76.8320500   7.3455890
  28.3882160  77.7757070   6.9960670  13.3979940  70.4204160   5.2834800
  14.0456130  69.8701540   4.8429960  13.8181780  70.6747310   6.1050610
  28.9466560  74.6751390   2.1821440  28.8365840  74.5207430   3.1203710
  29.7074150  74.1472330   1.9396850  27.2932280  70.6145520   8.6404440
  27.9304500  71.2279660   9.0063630  27.4407170  70.6506180   7.6953670
  13.1511940  70.5759830   8.0260120  12.8026760  71.0323650   8.7918300
  12.8199640  69.6816960   8.1082550  20.6636760  71.7671710  11.5479540
  20.6025650  72.3593540  12.2974950  21.6037140  71.6597670  11.4029800
  23.3011320  71.4241770  11.1871830  23.9151730  71.7421060  10.5252910
  23.8460880  70.9390360  11.8067690  13.8232580  70.1036030  11.3010890
  14.3715570  69.9224080  10.5377000  13.8887890  69.3130140  11.8367200
  24.0419360  69.9873910   7.5141120  23.1679200  70.3209020   7.3114050
  23.9330110  69.5147090   8.3392990  24.9491340  72.1944780   8.8982840
  24.6204700  71.3796540   8.5184570  25.8973640  72.1514590   8.7748530
  21.7894180  70.9043750   6.4534030  21.0065970  71.3789250   6.7330790
  21.4957110  69.9998580   6.3447210  26.3415250  71.6066850   4.4983120
  26.7823340  71.5511950   3.6504720  26.0722840  72.5224860   4.5693300
  28.2053820  71.2382090   2.5091940  28.1442220  70.2943310   2.3622960
  28.9845850  71.3462180   3.0545400  24.1773380  69.9872950   3.2033130
  24.7802750  70.5593160   3.6781650  23.4366370  70.5512390   2.9807030
  17.8253140  70.7514400  13.0047600  17.5437410  71.2548000  12.2408420
  18.2072840  69.9536150  12.6389730  24.4268600  70.1667980  13.5828070
  24.3134050  70.4862590  14.4779590  25.2438340  70.5680490  13.2865350
  23.3326750  59.4116960  77.8180260  23.2520800  58.4971570  77.5471970
  22.9191170  59.9084030  77.1119970  21.4644790  61.1895980  79.6989530
  20.6886890  60.7096420  79.9888100  22.1157720  60.5101630  79.5245690
  15.4810620  61.5015790  80.5765290  14.6495500  61.2464500  80.9761800
  16.0891600  61.5726560  81.3123210  25.4852220  65.5956170  78.4788660
  25.0233750  64.8243410  78.8075830  26.2977770  65.6222240  78.9841110
  15.4611880  65.5355880  80.7723310  15.7639920  64.6453620  80.5933530
  16.2055470  66.0926100  80.5445560  13.8902570  56.4617680  74.3607680
  13.0019270  56.8033650  74.2587560  14.1743760  56.2618000  73.4688510
  11.8535580  59.0623330  80.2447380  12.4251690  58.2945530  80.2451020
  11.8537120  59.3612090  79.3353990  21.7115530  67.8814180  78.0992650
  21.0926970  68.3371680  77.5287090  22.5667310  68.0365640  77.6982350
  20.9053780  63.8653170  79.7059690  20.8362060  62.9243110  79.5448820
  21.6673640  63.9554580  80.2782260  21.9358950  56.6723550  79.9328620
  22.3123770  55.7995430  79.8202290  21.8378460  57.0082250  79.0419060
  16.0663960  55.0449180  75.3946060  16.1730710  55.9452910  75.7014820
  15.1556320  54.9967150  75.1040710  25.7183070  54.1673990  76.8656960
  26.5392690  53.6770560  76.9082440  25.7517150  54.7571650  77.6188800
  13.7147120  56.9668190  80.6398650  14.3957230  57.2306560  81.2586050
  13.3995170  56.1269060  80.9736660  17.9071690  58.0135550  79.7271240
  18.4149910  58.5116520  80.3676260  18.4384930  57.2370750  79.5510600
  22.5778880  62.7653420  75.4924560  21.9596150  63.2302870  74.9287280
  23.0902130  63.4580900  75.9094070  25.9544550  56.1074370  79.6384500
  25.2500120  56.3959260  80.2187610  26.3156710  56.9174480  79.2784060
  11.9462080  63.4509950  72.8664190  11.5690060  63.9397050  72.1349090
  12.2035150  64.1235230  73.4970720  27.5707330  65.7249500  81.9011980
  26.8870850  66.3948610  81.8928650  28.1101620  65.9230150  81.1356840
  29.0231470  55.5529160  80.0293710  28.0756380  55.5868140  80.1609140
  29.3481460  56.3668110  80.4143070  19.5551010  51.8526340  78.3249700
  19.8625990  51.2973230  77.6085200  18.6251710  51.9870800  78.1422690
  25.1066070  67.5693630  80.6157160  25.1193230  67.1655920  79.7479420
  24.5541290  68.3440920  80.5118590  26.4011490  64.2909850  75.7047330
  26.2907820  63.3484180  75.8296750  26.3979740  64.6525490  76.5910090
  21.9431770  59.9175170  75.0609820  21.0161050  59.8512550  75.2898290
  22.0956590  60.8555300  74.9465060  21.9300850  56.1892170  72.0576980
  20.9904520  56.3506130  72.1429440  22.2484110  56.9077850  71.5112970
  28.4513610  60.8710690  82.0356010  27.6232240  60.9403780  81.5606140
  29.0464090  61.4565000  81.5671840  25.9729060  61.4795470  75.5645070
  25.3541480  61.1415020  74.9171370  25.9553510  60.8355230  76.2724260
  17.5488410  60.4439910  77.8429550  17.1445410  59.7317160  77.3475450
  17.6351530  60.0993150  78.7317590  18.0170110  64.1307470  80.0068760
  17.7198400  63.5252940  79.3276540  18.9669930  64.1684780  79.8958120
  24.1493760  60.7182280  72.5717820  24.5887040  59.8804710  72.4255640
  24.8622180  61.3511680  72.6581960  22.2589140  65.6578350  76.5399060
  22.6985050  66.4002680  76.1254450  22.1976030  65.9004920  77.4638020
  27.7310900  51.9725090  70.8858860  27.4183560  52.0651920  71.7857930
  28.4923370  52.5506120  70.8356290  14.2493040  59.3384890  75.3436200
  14.1290640  60.0646980  74.7317470  13.9393930  58.5687800  74.8664110
  11.8878410  62.5100030  81.1504840  11.9658830  62.6448800  80.2060560
  12.5020090  61.8015920  81.3432960  13.1326040  64.2100220  77.5611020
  12.7254120  64.3514810  76.7064620  14.0239050  63.9260380  77.3582230
  24.9259320  68.6447470  73.8962070  24.7660460  68.3550410  74.7943900
  24.7606030  67.8687600  73.3607300  17.4047700  68.4246000  75.6733690
  17.2290180  67.5081540  75.4601490  16.5503440  68.7833290  75.9131490
  24.6285450  66.1535030  72.4560070  23.9350610  66.1512320  71.7962350
  25.3708310  65.7294350  72.0254240  24.1935380  67.7797740  76.5308560
  24.6492330  66.9987120  76.8447180  24.5327900  68.4904560  77.0749740
  16.7156700  52.6819960  78.7259870  16.2724850  53.4629500  78.3944390
  17.2741690  53.0049850  79.4330810  19.8315520  52.3030660  73.6065700
  19.2069700  52.2990530  74.3319010  19.7445640  51.4361620  73.2101670
  18.7532600  53.2267290  80.5849470  19.0504930  54.1330120  80.5041490
  19.3018160  52.7386070  79.9709040  16.5070920  57.8053530  76.4541120
  16.2811840  57.5890700  77.3587740  15.7263450  58.2381990  76.1087090
  23.7368680  57.8116900  75.0531770  23.1377570  58.5352700  74.8695390
  24.2848290  57.7493680  74.2708220  22.3433550  56.4480440  77.0835050
  22.7363120  56.7652640  76.2703740  22.7050400  55.5692320  77.1979570
  11.3797720  53.0381240  79.3065250  11.0910770  53.6084100  80.0190230
  12.1243480  52.5585690  79.6696480  11.5667950  56.9801360  70.5167970
  11.4842620  57.9232120  70.6582960  11.2151010  56.8376270  69.6380320
  22.9288690  59.0386190  81.1785830  22.1969810  59.5473000  81.5275930
  22.5313030  58.2216170  80.8774610  19.3666080  55.7140390  79.5838320
  19.3702140  55.2730340  78.7342860  20.2617200  56.0357720  79.6910140
  15.2168460  55.5966880  78.5432530  14.8768510  56.0742110  79.2999580
  14.4545780  55.1432000  78.1833630  19.4286230  56.7152470  72.5745080
  19.5499050  56.6738950  73.5230900  19.0434740  57.5776620  72.4191810
  23.3914600  54.4919870  80.5908770  23.4087340  54.9428520  81.4350620
  23.1430180  53.5925510  80.8042210  18.4407730  59.0253610  71.9728380
  17.8724630  58.5771860  71.3464290  19.1496730  59.3846390  71.4393530
  12.5314540  54.5185860  77.4597200  12.2461460  54.1541530  78.2975820
  12.4693400  53.7866320  76.8460340  15.9855210  63.0211800  74.2454790
  15.2117470  62.4809420  74.0853510  16.7149840  62.5018410  73.9072550
  26.7443190  62.0177160  80.0381180  27.4642310  62.5132450  79.6477290
  26.5425010  61.3395050  79.3935050  22.2053130  53.4115120  74.1810570
  21.3917740  52.9128290  74.1055880  22.0115080  54.2513370  73.7646920
  24.9201520  57.7834770  72.4772730  25.8081140  58.0952000  72.3024070
  24.8906610  56.9107020  72.0853310  16.0292610  62.6892180  77.8833600
  16.5471280  61.8860440  77.8290490  15.5776630  62.6271320  78.7250430
  20.9162110  63.9558460  73.1560900  21.2577810  64.7000690  72.6604220
  20.0874820  64.2689580  73.5185730  27.1915790  59.0946610  71.9452590
  27.1079510  59.5260830  71.0949030  27.9109980  59.5544960  72.3779410
  28.2203040  65.9488870  74.6734720  27.5779200  65.2944490  74.9478440
  27.8333700  66.3543960  73.8975390  23.7989520  63.2774300  78.5206410
  24.1513340  62.6802430  77.8607780  22.9151850  62.9518530  78.6914660
  19.8852800  64.0371990  75.9276820  20.5723930  64.5841200  76.3084410
  19.0985220  64.5812720  75.9626430  12.0245200  59.6544810  71.4193900
  12.8940050  59.9369610  71.7029820  11.5335520  60.4680680  71.3042710
  19.1880010  61.0418020  75.5402180  19.6442790  61.8523270  75.7662370
  18.8368220  60.7241160  76.3720670  15.0891790  51.3855670  76.0124700
  14.9606420  51.3773570  76.9609620  14.2653810  51.7238760  75.6615710
  22.7644700  64.5556710  81.4871930  23.4066930  63.8549870  81.6004100
  23.2894050  65.3355150  81.3068820  26.6100420  64.8405330  71.2111070
  26.3838000  64.1235770  71.8035710  26.2196620  64.5917770  70.3732820
  12.3916450  68.8672190  71.9855530  12.7514090  69.4661530  71.3312800
  12.2508790  69.4132080  72.7590560  26.1916670  62.7577270  72.8725230
  25.9038370  63.2189960  73.6603110  26.9868840  62.2975040  73.1409450
  18.4085070  66.2503390  72.8029200  18.3995170  66.9833080  72.1873710
  17.4883430  66.0034970  72.8956160  14.0091710  61.4718280  73.5475960
  13.4019660  62.2117180  73.5571260  14.4841060  61.5617640  72.7214160
  26.9486530  54.5926040  74.0320410  26.3199690  54.6971710  73.3178640
  26.4538450  54.8122820  74.8214290  21.3944670  66.3131630  71.4654390
  21.4956650  66.1095620  70.5356370  20.4946410  66.0589910  71.6702170
  18.9170560  56.8711990  75.4478290  18.2086710  57.3398330  75.8891900
  19.2015040  56.2134000  76.0823480  22.9485990  53.5962650  76.8874080
  22.8253770  53.6148780  75.9383590  23.8970550  53.6441590  77.0072480
  20.0362780  68.8317950  76.1602060  20.2904280  68.7939340  75.2381430
  19.0875260  68.7051280  76.1530310  17.1205580  55.1797070  72.8229000
  17.9696110  55.6167220  72.7569190  16.7536850  55.4917330  73.6501060
  26.0415360  59.7509830  77.7360570  25.1005500  59.7660060  77.9108260
  26.3559430  58.9645790  78.1820870  16.0197000  61.4329430  71.2964530
  16.7860270  61.3210790  71.8589960  16.0971690  60.7367400  70.6441300
  14.7143760  58.8654500  71.9797420  14.7947350  57.9182010  72.0914820
  15.6063510  59.1961380  72.0858080  28.0440940  66.9218680  79.4114830
  28.1688360  67.7449850  79.8838640  28.9106500  66.7109410  79.0638980
  15.5158470  69.0149890  79.0831960  16.2520950  68.4665350  79.3540530
  15.8999390  69.8805900  78.9437950  12.4003950  65.0823460  74.9573470
  11.4743730  65.3244600  74.9478880  12.8660380  65.9097720  74.8358220
  18.6260780  68.1880200  70.9057530  19.4189390  68.4769030  70.4539320
  18.1065130  67.7572370  70.2270010  27.6790950  67.4150330  72.3294270
  27.3932460  67.0015470  71.5148450  27.4810500  68.3438040  72.2094790
  19.1438180  63.4083610  70.7699880  19.0388820  62.7935960  71.4961260
  18.9762400  62.8849500  69.9862890  22.3840910  62.4703640  71.3741870
  21.8351010  62.9172940  72.0184610  23.0060170  61.9652890  71.8979540
  18.0516030  61.4294560  73.2707170  18.4732450  61.2634430  74.1138560
  18.1766870  60.6194790  72.7762310  20.5643670  60.4532170  70.5184270
  21.0849330  59.7381190  70.1525420  21.2112070  61.0918040  70.8184780
  16.9474930  57.5027790  70.2165330  16.7463990  56.6395150  70.5778670
  16.7766980  57.4161150  69.2786930  24.4263240  52.3136020  72.7452210
  24.7065530  51.4703920  73.1011630  23.6528970  52.5459130  73.2590960
  15.7457730  54.6028410  70.2043210  16.0483630  54.6095840  69.2962360
  16.4852320  54.2526270  70.7010870  18.9642660  53.5463030  71.1899410
  18.6164660  52.8687020  70.6101860  19.1655430  53.0852540  72.0042800
  21.1291700  68.5343780  72.8086010  22.0242490  68.8728750  72.8304770
  21.1609330  67.8123190  72.1810290  14.7687860  63.9070830  71.0373010
  15.2062730  64.4500500  71.6930590  15.2535590  63.0817780  71.0469350
  11.9833660  66.6959860  78.4893270  12.3136670  65.8280920  78.2571910
  12.4124660  66.9018380  79.3198230  16.5795580  65.0268870  76.1495240
  16.2791120  64.9033840  77.0499150  16.4733070  64.1677460  75.7410970
  29.3487500  64.8065270  70.8521920  28.5180460  64.8741920  71.3229150
  29.5259330  65.6969390  70.5488780  28.8043960  61.5512750  73.3556120
  29.5662870  62.1209400  73.4615810  28.8198330  60.9839950  74.1264430
  12.3048300  60.0750680  77.5863780  11.6497140  59.8062320  76.9423480
  13.1426250  59.9655160  77.1365760  29.8103930  62.4062850  78.1998050
  30.1812760  61.6230170  77.7934020  30.4505860  63.0951950  78.0215350
  28.8563130  61.8447120  70.5128640  29.1311970  62.7526000  70.3847860
  28.6673870  61.7809650  71.4490630  25.2538740  54.8691970  71.8082270
  25.6723620  54.6822950  70.9678930  24.9474800  54.0171020  72.1185200
  28.7528470  59.7816110  75.5058070  28.3772070  59.0144040  75.0739360
  28.0231590  60.1638810  75.9933000  11.5186380  57.2849610  73.5289110
  10.6150460  57.5479810  73.3540770  12.0027000  57.5560780  72.7489070
  28.0279430  58.0073600  78.8065310  28.5516910  57.5136250  78.1755480
  28.6138850  58.1423960  79.5512880  14.0613590  56.3415150  71.4383490
  14.7705290  55.9198370  70.9530770  13.3453530  56.4090380  70.8066840
  13.7087750  52.3954480  70.4786140  14.4315880  52.9363420  70.7967360
  13.9812270  52.1217900  69.6027680  27.5179400  57.2646950  74.7457720
  28.0138520  57.0317820  75.5306600  27.3195470  56.4258790  74.3295360
  13.3979940  51.6460670  80.3808760  14.0456130  51.0958050  79.9403920
  13.8181780  51.9003820  81.2024570  28.9466560  55.9007900  77.2795400
  28.8365840  55.7463940  78.2177670  29.7074150  55.3728840  77.0370810
  29.8356830  53.7315820  70.5201540  30.7606140  53.5997000  70.3119830
  29.8132620  53.8108640  71.4737990  29.9095320  54.5026480  73.1458250
  29.1146820  54.4371600  73.6751160  30.1138600  55.4377120  73.1343600
  26.8513740  68.5418030  77.1396640  27.4472810  68.2202600  76.4631060
  27.1091890  68.0689850  77.9309910  27.4025950  69.1913330  80.9694370
  26.9428920  69.9429140  80.5952390  26.7738410  68.4719800  80.9109170
  17.8321670  67.5001570  80.1442500  18.3486690  66.8888930  79.6190760
  18.4819050  68.0030350  80.6353510  20.5717170  68.3910060  80.9711480
  20.8594980  68.1364360  80.0944490  21.0840390  67.8387420  81.5617050
  21.7894180  52.1300260  81.5507990  21.0065970  52.6045760  81.8304750
  21.4957110  51.2255090  81.4421170  26.3415250  52.8323360  79.5957080
  26.7823340  52.7768460  78.7478680  26.0722840  53.7481370  79.6667260
  28.2053820  52.4638600  77.6065900  28.1442220  51.5199820  77.4596920
  28.9845850  52.5718690  78.1519360  12.5106570  68.6030960  76.5689850
  12.3428610  67.9701640  77.2671740  11.6441080  68.8090360  76.2184040
  13.1334590  52.4347740  74.0721710  13.8913950  52.5476620  73.4985740
  12.6711760  53.2716940  74.0265140  19.6748400  54.5487010  77.0624020
  18.8622910  54.1743900  76.7219900  20.1790040  53.7932090  77.3645210
  24.1773380  51.2129460  78.3007090  24.7802750  51.7849670  78.7755610
  23.4366370  51.7768900  78.0780990  27.3207980  51.6151020  73.5747370
  27.5158610  52.5134470  73.8414800  26.5337850  51.3838100  74.0680320
  14.1169270  67.2964190  74.0139990  13.5916890  67.6772220  73.3101950
  14.0413850  67.9214960  74.7349700  15.5059740  52.9611790  72.6123680
  16.0352500  52.1741590  72.4831630  16.1388060  53.6402980  72.8459210
  17.6997580  52.6986930  75.6669070  17.0700320  51.9974240  75.8339200
  17.1602720  53.4591060  75.4502230  28.8734590  68.8551730  75.3353930
  29.0486780  68.1689470  74.6914850  28.1756160  69.3798780  74.9430600
  16.7162240  69.2446570  72.8889240  17.4481060  68.9605850  72.3413130
  16.9755910  69.0059850  73.7788620  15.8777030  65.3611300  72.8935570
  15.2485910  65.8296400  73.4421400  15.9924860  64.5160520  73.3281760
  23.3326750  59.4116960  59.0436770  23.2520800  58.4971570  58.7728480
  22.9191170  59.9084030  58.3376480  21.4644790  61.1895980  60.9246040
  20.6886890  60.7096420  61.2144610  22.1157720  60.5101630  60.7502200
  15.4810620  61.5015790  61.8021800  14.6495500  61.2464500  62.2018310
  16.0891600  61.5726560  62.5379720  25.4852220  65.5956170  59.7045170
  25.0233750  64.8243410  60.0332340  26.2977770  65.6222240  60.2097620
  15.4611880  65.5355880  61.9979820  15.7639920  64.6453620  61.8190040
  16.2055470  66.0926100  61.7702070  13.8902570  56.4617680  55.5864190
  13.0019270  56.8033650  55.4844070  14.1743760  56.2618000  54.6945020
  11.8535580  59.0623330  61.4703890  12.4251690  58.2945530  61.4707530
  11.8537120  59.3612090  60.5610500  21.7115530  67.8814180  59.3249160
  21.0926970  68.3371680  58.7543600  22.5667310  68.0365640  58.9238860
  20.9053780  63.8653170  60.9316200  20.8362060  62.9243110  60.7705330
  21.6673640  63.9554580  61.5038770  13.0960450  54.4707690  63.2572820
  12.9163290  53.5733440  63.5375580  12.6940530  55.0179560  63.9319770
  21.9358950  56.6723550  61.1585130  22.3123770  55.7995430  61.0458800
  21.8378460  57.0082250  60.2675570  16.0663960  55.0449180  56.6202570
  16.1730710  55.9452910  56.9271330  15.1556320  54.9967150  56.3297220
  25.7183070  54.1673990  58.0913470  26.5392690  53.6770560  58.1338950
  25.7517150  54.7571650  58.8445310  13.7147120  56.9668190  61.8655160
  14.3957230  57.2306560  62.4842560  13.3995170  56.1269060  62.1993170
  17.9071690  58.0135550  60.9527750  18.4149910  58.5116520  61.5932770
  18.4384930  57.2370750  60.7767110  30.0082620  56.1840740  64.6557100
  29.3034790  56.5722450  64.1372210  30.2740540  56.8791030  65.2578030
  16.1907790  52.6534110  65.2191170  16.1926230  53.1706500  64.4137070
  15.3612100  52.1764290  65.1961100  22.5778880  62.7653420  56.7181070
  21.9596150  63.2302870  56.1543790  23.0902130  63.4580900  57.1350580
  17.4410640  62.2929290  63.3964670  17.1080020  62.9198210  64.0385740
  17.6177320  62.8191170  62.6166340  25.9544550  56.1074370  60.8641010
  25.2500120  56.3959260  61.4444120  26.3156710  56.9174480  60.5040570
  15.8723120  54.3644070  63.2261620  16.2139930  55.2086120  62.9315490
  14.9338930  54.5127810  63.3426960  16.6529740  64.2610090  65.2113850
  17.2703740  64.9361170  64.9298300  15.7922860  64.6698070  65.1201350
  11.9462080  63.4509950  54.0920700  11.5690060  63.9397050  53.3605600
  12.2035150  64.1235230  54.7227230  27.5707330  65.7249500  63.1268490
  26.8870850  66.3948610  63.1185160  28.1101620  65.9230150  62.3613350
  29.0231470  55.5529160  61.2550220  28.0756380  55.5868140  61.3865650
  29.3481460  56.3668110  61.6399580  19.5551010  51.8526340  59.5506210
  19.8625990  51.2973230  58.8341710  18.6251710  51.9870800  59.3679200
  25.1066070  67.5693630  61.8413670  25.1193230  67.1655920  60.9735930
  24.5541290  68.3440920  61.7375100  26.4011490  64.2909850  56.9303840
  26.2907820  63.3484180  57.0553260  26.3979740  64.6525490  57.8166600
  24.5051510  62.4723470  63.1696280  24.9220300  62.2583580  62.3349740
  25.2291330  62.7296260  63.7404900  21.9431770  59.9175170  56.2866330
  21.0161050  59.8512550  56.5154800  22.0956590  60.8555300  56.1721570
  21.9300850  56.1892170  53.2833490  20.9904520  56.3506130  53.3685950
  22.2484110  56.9077850  52.7369480  28.4513610  60.8710690  63.2612520
  27.6232240  60.9403780  62.7862650  29.0464090  61.4565000  62.7928350
  25.9729060  61.4795470  56.7901580  25.3541480  61.1415020  56.1427880
  25.9553510  60.8355230  57.4980770  25.4155620  57.6580010  64.2067390
  25.0026800  58.4833720  64.4607380  24.6831570  57.0725050  64.0143750
  17.5488410  60.4439910  59.0686060  17.1445410  59.7317160  58.5731960
  17.6351530  60.0993150  59.9574100  18.0170110  64.1307470  61.2325270
  17.7198400  63.5252940  60.5533050  18.9669930  64.1684780  61.1214630
  16.2617030  57.2183120  62.8485100  16.8131620  57.3278460  62.0738350
  16.7760540  57.5920720  63.5640330  26.1055720  67.7039340  64.8948370
  25.6286280  68.5111530  64.7020980  25.4217510  67.0517670  65.0474580
  17.1088540  63.8689160  67.8833070  16.2117070  64.0929130  68.1306470
  17.1341410  63.9924100  66.9344470  24.1493760  60.7182280  53.7974330
  24.5887040  59.8804710  53.6512150  24.8622180  61.3511680  53.8838470
  15.9359760  60.7402480  66.4590440  15.7967530  61.6125280  66.8277840
  15.0541120  60.3975290  66.3138380  22.2589140  65.6578350  57.7655570
  22.6985050  66.4002680  57.3510960  22.1976030  65.9004920  58.6894530
  17.7340110  66.6824180  68.6675590  17.7055540  67.0867130  67.8004020
  17.5705080  65.7534540  68.5047190  27.7310900  51.9725090  52.1115370
  27.4183560  52.0651920  53.0114440  28.4923370  52.5506120  52.0612800
  14.2493040  59.3384890  56.5692710  14.1290640  60.0646980  55.9573980
  13.9393930  58.5687800  56.0920620  29.6854930  67.4651280  69.9639760
  30.1614650  67.9434170  70.6428840  30.3062090  67.3968770  69.2385260
  11.8878410  62.5100030  62.3761350  11.9658830  62.6448800  61.4317070
  12.5020090  61.8015920  62.5689470  13.1326040  64.2100220  58.7867530
  12.7254120  64.3514810  57.9321130  14.0239050  63.9260380  58.5838740
  29.0888180  64.6564130  67.1239770  29.2151240  64.4176010  66.2056950
  29.1309560  63.8248670  67.5961850  22.9504920  68.3592130  65.6934580
  23.4649590  68.2700140  66.4957010  22.1074000  68.7051830  65.9862490
  24.9259320  68.6447470  55.1218580  24.7660460  68.3550410  56.0200410
  24.7606030  67.8687600  54.5863810  17.4047700  68.4246000  56.8990200
  17.2290180  67.5081540  56.6858000  16.5503440  68.7833290  57.1388000
  24.6285450  66.1535030  53.6816580  23.9350610  66.1512320  53.0218860
  25.3708310  65.7294350  53.2510750  24.1935380  67.7797740  57.7565070
  24.6492330  66.9987120  58.0703690  24.5327900  68.4904560  58.3006250
  28.9412190  56.7096590  68.0889510  28.3256460  57.2176260  67.5604970
  28.6208610  55.8094920  68.0315450  11.9437930  63.5514200  64.9155810
  12.1068970  63.0819560  64.0975180  12.4090380  63.0437760  65.5804650
  16.7156700  52.6819960  59.9516380  16.2724850  53.4629500  59.6200900
  17.2741690  53.0049850  60.6587320  21.0026510  55.5488480  65.5551700
  20.5405880  55.7571500  66.3671640  20.6004620  54.7347830  65.2522370
  26.0031020  56.7697430  66.6848360  25.1524610  56.4703180  67.0057430
  25.8432810  57.0139440  65.7732180  23.0980730  58.2699180  68.7847150
  23.4234140  57.4362930  68.4449380  23.8861060  58.7927700  68.9325480
  19.8315520  52.3030660  54.8322210  19.2069700  52.2990530  55.5575520
  19.7445640  51.4361620  54.4358180  18.7532600  53.2267290  61.8105980
  19.0504930  54.1330120  61.7298000  19.3018160  52.7386070  61.1965550
  16.5070920  57.8053530  57.6797630  16.2811840  57.5890700  58.5844250
  15.7263450  58.2381990  57.3343600  23.7368680  57.8116900  56.2788280
  23.1377570  58.5352700  56.0951900  24.2848290  57.7493680  55.4964730
  18.9470130  58.7039110  68.3457900  18.8513730  57.7633840  68.1958300
  19.7902110  58.9254180  67.9505970  22.3433550  56.4480440  58.3091560
  22.7363120  56.7652640  57.4960250  22.7050400  55.5692320  58.4236080
  14.0780670  55.1152780  66.4991680  13.6844060  55.9627990  66.7064460
  13.3899070  54.4779150  66.6900320  20.6525720  55.1987750  69.5688420
  19.9624040  55.0059950  70.2034510  21.3958020  55.4822390  70.1012720
  11.3797720  53.0381240  60.5321760  11.0910770  53.6084100  61.2446740
  12.1243480  52.5585690  60.8952990  11.5667950  56.9801360  51.7424480
  11.4842620  57.9232120  51.8839470  11.2151010  56.8376270  50.8636830
  22.9288690  59.0386190  62.4042340  22.1969810  59.5473000  62.7532440
  22.5313030  58.2216170  62.1031120  19.3666080  55.7140390  60.8094830
  19.3702140  55.2730340  59.9599370  20.2617200  56.0357720  60.9166650
  15.2168460  55.5966880  59.7689040  14.8768510  56.0742110  60.5256090
  14.4545780  55.1432000  59.4090140  19.4286230  56.7152470  53.8001590
  19.5499050  56.6738950  54.7487410  19.0434740  57.5776620  53.6448320
  23.3914600  54.4919870  61.8165280  23.4087340  54.9428520  62.6607130
  23.1430180  53.5925510  62.0298720  18.4407730  59.0253610  53.1984890
  17.8724630  58.5771860  52.5720800  19.1496730  59.3846390  52.6650040
  26.8185350  51.9052050  67.6551660  27.1431120  51.1741710  68.1809640
  26.8541860  51.5865690  66.7532650  13.5176910  62.9265630  67.0751620
  13.1331700  62.2859300  67.6734580  13.8289100  63.6301750  67.6446350
  19.6674050  59.7742170  62.5560240  20.0344180  59.3000740  63.3021580
  19.4779110  60.6483740  62.8968580  12.5314540  54.5185860  58.6853710
  12.2461460  54.1541530  59.5232330  12.4693400  53.7866320  58.0716850
  17.4573420  58.8150810  64.8744450  17.1530490  59.6942790  65.0994810
  18.4119880  58.8750600  64.9101890  15.9855210  63.0211800  55.4711300
  15.2117470  62.4809420  55.3110020  16.7149840  62.5018410  55.1329060
  26.7443190  62.0177160  61.2637690  27.4642310  62.5132450  60.8733800
  26.5425010  61.3395050  60.6191560  22.2053130  53.4115120  55.4067080
  21.3917740  52.9128290  55.3312390  22.0115080  54.2513370  54.9903430
  22.1261990  62.0886220  67.1506690  22.0599300  61.1681890  66.8964280
  21.4967130  62.1861660  67.8651330  24.9201520  57.7834770  53.7029240
  25.8081140  58.0952000  53.5280580  24.8906610  56.9107020  53.3109820
  16.0292610  62.6892180  59.1090110  16.5471280  61.8860440  59.0547000
  15.5776630  62.6271320  59.9506940  20.9162110  63.9558460  54.3817410
  21.2577810  64.7000690  53.8860730  20.0874820  64.2689580  54.7442240
  13.5137150  59.6553550  66.0215810  13.1552090  60.3207400  66.6089150
  13.2191710  58.8237100  66.3928430  16.7150270  60.1137790  68.9055360
  16.4150410  60.2594970  68.0083180  17.4861510  59.5543080  68.8128750
  22.0578720  64.9106790  66.9010490  22.0723260  63.9787750  66.6829400
  21.3503820  64.9966550  67.5400260  27.1915790  59.0946610  53.1709100
  27.1079510  59.5260830  52.3205540  27.9109980  59.5544960  53.6035920
  28.2689930  61.5514130  66.2479070  27.5438120  62.1442910  66.0508460
  28.7965390  61.5437670  65.4492440  28.2203040  65.9488870  55.8991230
  27.5779200  65.2944490  56.1734950  27.8333700  66.3543960  55.1231900
  23.7989520  63.2774300  59.7462920  24.1513340  62.6802430  59.0864290
  22.9151850  62.9518530  59.9171170  19.8852800  64.0371990  57.1533330
  20.5723930  64.5841200  57.5340920  19.0985220  64.5812720  57.1882940
  12.0245200  59.6544810  52.6450410  12.8940050  59.9369610  52.9286330
  11.5335520  60.4680680  52.5299220  19.1880010  61.0418020  56.7658690
  19.6442790  61.8523270  56.9918880  18.8368220  60.7241160  57.5977180
  21.4912620  66.5524360  63.9950990  22.1354840  66.7583740  64.6724410
  21.8542060  65.7912760  63.5421840  15.0891790  51.3855670  57.2381210
  14.9606420  51.3773570  58.1866130  14.2653810  51.7238760  56.8872220
  22.7644700  64.5556710  62.7128440  23.4066930  63.8549870  62.8260610
  23.2894050  65.3355150  62.5325330  26.6100420  64.8405330  52.4367580
  26.3838000  64.1235770  53.0292220  26.2196620  64.5917770  51.5989330
  24.5382320  65.3551610  65.9164500  24.8738560  65.9418300  66.5942420
  23.6182660  65.2244320  66.1462290  12.3916450  68.8672190  53.2112040
  12.7514090  69.4661530  52.5569310  12.2508790  69.4132080  53.9847070
  12.0885720  53.1446790  66.6987910  11.3744240  53.3443710  67.3040520
  12.5080760  52.3686360  67.0702710  26.1916670  62.7577270  54.0981740
  25.9038370  63.2189960  54.8859620  26.9868840  62.2975040  54.3665960
  12.3758310  67.1327050  67.6854440  12.4849430  66.1921790  67.5449830
  11.7238870  67.3981800  67.0368170  20.3670900  65.4042940  69.0852560
  20.0467770  64.6852180  69.6298250  19.6929260  66.0798010  69.1588620
  18.4085070  66.2503390  54.0285710  18.3995170  66.9833080  53.4130220
  17.4883430  66.0034970  54.1212670  14.0091710  61.4718280  54.7732470
  13.4019660  62.2117180  54.7827770  14.4841060  61.5617640  53.9470670
  23.5824500  55.6369100  64.4489360  23.9505320  54.8164310  64.7768930
  22.7222700  55.6970990  64.8645010  26.9486530  54.5926040  55.2576920
  26.3199690  54.6971710  54.5435150  26.4538450  54.8122820  56.0470800
  21.3944670  66.3131630  52.6910900  21.4956650  66.1095620  51.7612880
  20.4946410  66.0589910  52.8958680  18.9170560  56.8711990  56.6734800
  18.2086710  57.3398330  57.1148410  19.2015040  56.2134000  57.3079990
  20.5426490  58.2908690  64.6727330  21.0411740  58.7654510  65.3379180
  20.6849440  57.3672210  64.8797360  22.9485990  53.5962650  58.1130590
  22.8253770  53.6148780  57.1640100  23.8970550  53.6441590  58.2328990
  20.0362780  68.8317950  57.3858570  20.2904280  68.7939340  56.4637940
  19.0875260  68.7051280  57.3786820  17.1205580  55.1797070  54.0485510
  17.9696110  55.6167220  53.9825700  16.7536850  55.4917330  54.8757570
  27.7493350  54.5076650  65.5155720  27.2466950  55.2482050  65.8549530
  28.5650010  54.8960650  65.1992510  26.0415360  59.7509830  58.9617080
  25.1005500  59.7660060  59.1364770  26.3559430  58.9645790  59.4077380
  16.0197000  61.4329430  52.5221040  16.7860270  61.3210790  53.0846470
  16.0971690  60.7367400  51.8697810  14.7143760  58.8654500  53.2053930
  14.7947350  57.9182010  53.3171330  15.6063510  59.1961380  53.3114590
  28.0440940  66.9218680  60.6371340  28.1688360  67.7449850  61.1095150
  28.9106500  66.7109410  60.2895490  15.5158470  69.0149890  60.3088470
  16.2520950  68.4665350  60.5797040  15.8999390  69.8805900  60.1694460
  12.4003950  65.0823460  56.1829980  11.4743730  65.3244600  56.1735390
  12.8660380  65.9097720  56.0614730  14.5216750  68.1995960  69.4974050
  15.3229480  68.5208010  69.9109450  14.0068570  67.8391540  70.2193960
  18.6260780  68.1880200  52.1314040  19.4189390  68.4769030  51.6795830
  18.1065130  67.7572370  51.4526520  23.3581380  64.3075830  69.4449460
  22.7519540  64.3307430  68.7045210  23.0535490  63.5758870  69.9816710
  24.7881750  68.0356120  68.0558870  25.7403500  67.9514140  68.0059110
  24.6409970  68.6997830  68.7292660  27.6790950  67.4150330  53.5550780
  27.3932460  67.0015470  52.7404960  27.4810500  68.3438040  53.4351300
  12.2414560  60.6869420  68.4410100  12.7453580  60.1076700  69.0126330
  11.5021980  60.9709650  68.9786470  19.1438180  63.4083610  51.9956390
  19.0388820  62.7935960  52.7217770  18.9762400  62.8849500  51.2119400
  19.2952500  62.0940410  67.9745620  18.5298170  62.6625410  67.8900290
  19.4768460  61.8016620  67.0813850  22.3840910  62.4703640  52.5998380
  21.8351010  62.9172940  53.2441120  23.0060170  61.9652890  53.1236050
  26.4375850  63.8245740  68.5320640  27.1785320  64.1621500  68.0288100
  25.6748530  63.9937800  67.9790410  14.2737640  58.8299010  69.3360170
  14.3142980  58.5312880  70.2445400  15.1283140  59.2306620  69.1767690
  18.0516030  61.4294560  54.4963680  18.4732450  61.2634430  55.3395070
  18.1766870  60.6194790  54.0018820  16.2143450  57.4091110  67.3034660
  15.6839910  56.9182060  66.6758000  16.8831520  57.8375310  66.7692590
  20.5643670  60.4532170  51.7440780  21.0849330  59.7381190  51.3781930
  21.2112070  61.0918040  52.0441290  25.1121510  61.8760570  67.0675850
  25.5262530  62.0305650  67.9166270  24.1772510  62.0015790  67.2301630
  25.5843680  59.2156730  69.0715000  26.1664450  58.4609050  68.9835480
  25.7605450  59.7464170  68.2946480  16.7015750  54.3753480  67.3831950
  16.6072620  53.7574230  66.6582820  16.1213140  55.1019770  67.1561860
  19.4677190  52.9326720  64.4159340  19.0194490  52.9550980  63.5704890
  18.8342390  52.5345740  65.0129640  19.8736740  61.8281050  65.0371780
  20.2924850  62.6713780  64.8648020  18.9545370  61.9653090  64.8078560
  22.2100640  59.5597230  66.4209620  22.3296850  58.9638370  67.1604460
  23.0694640  59.5966920  66.0010920  24.5488540  60.1134420  64.9972130
  24.0223760  60.6377040  64.3937270  24.8919880  60.7461810  65.6281860
  16.9474930  57.5027790  51.4421840  16.7463990  56.6395150  51.8035180
  16.7766980  57.4161150  50.5043440  17.7244160  68.1334060  66.1529510
  17.1865250  68.8580120  65.8338210  17.9778120  67.6564400  65.3626850
  18.9769410  56.1018580  67.6785440  19.5669100  55.7934430  68.3663260
  18.1589650  55.6298330  67.8345340  23.7962840  55.7184390  67.9118460
  23.1078360  55.0565930  67.8468450  24.5168860  55.2722660  68.3566920
  24.4263240  52.3136020  53.9708720  24.7065530  51.4703920  54.3268140
  23.6528970  52.5459130  54.4847470  15.7457730  54.6028410  51.4299720
  16.0483630  54.6095840  50.5218870  16.4852320  54.2526270  51.9267380
  20.5806370  69.3685270  66.4116160  20.5065070  70.2720410  66.7188530
  19.6785210  69.0497170  66.3838230  18.9642660  53.5463030  52.4155920
  18.6164660  52.8687020  51.8358370  19.1655430  53.0852540  53.2299310
  21.1291700  68.5343780  54.0342520  22.0242490  68.8728750  54.0561280
  21.1609330  67.8123190  53.4066800  14.7687860  63.9070830  52.2629520
  15.2062730  64.4500500  52.9187100  15.2535590  63.0817780  52.2725860
  11.9833660  66.6959860  59.7149780  12.3136670  65.8280920  59.4828420
  12.4124660  66.9018380  60.5454740  16.5795580  65.0268870  57.3751750
  16.2791120  64.9033840  58.2755660  16.4733070  64.1677460  56.9667480
  12.4723870  67.5630450  62.4531410  12.0354860  67.7431250  63.2855560
  13.0401550  68.3205070  62.3113130  28.1086050  67.0647450  66.7408720
  27.5088040  67.1240010  65.9972640  28.2379950  66.1252430  66.8705570
  29.3487500  64.8065270  52.0778430  28.5180460  64.8741920  52.5485660
  29.5259330  65.6969390  51.7745290  28.8043960  61.5512750  54.5812630
  29.5662870  62.1209400  54.6872320  28.8198330  60.9839950  55.3520940
  12.3048300  60.0750680  58.8120290  11.6497140  59.8062320  58.1679990
  13.1426250  59.9655160  58.3622270  29.8103930  62.4062850  59.4254560
  30.1812760  61.6230170  59.0190530  30.4505860  63.0951950  59.2471860
  26.7937690  63.7899430  64.8384880  25.9797530  64.2196590  65.1010670
  27.2011890  64.4017840  64.2253930  28.8563130  61.8447120  51.7385150
  29.1311970  62.7526000  51.6104370  28.6673870  61.7809650  52.6747140
  25.2538740  54.8691970  53.0338780  25.6723620  54.6822950  52.1935440
  24.9474800  54.0171020  53.3441710  28.7528470  59.7816110  56.7314580
  28.3772070  59.0144040  56.2995870  28.0231590  60.1638810  57.2189510
  13.3424230  60.4603250  63.3523630  13.7097270  60.3730650  64.2319650
  12.7735050  59.6969800  63.2530490  28.1428090  58.9287630  66.3654100
  27.9114180  58.7000380  65.4652050  28.4032640  59.8487180  66.3198990
  12.8940230  57.3712340  67.2582050  11.9996280  57.3379100  67.5975760
  13.4337780  57.5699130  68.0233300  26.5816160  54.1544060  69.1433800
  27.4586340  54.1627460  69.5267800  26.5937000  53.4174900  68.5326150
  11.5186380  57.2849610  54.7545620  10.6150460  57.5479810  54.5797280
  12.0027000  57.5560780  53.9745580  28.0279430  58.0073600  60.0321820
  28.5516910  57.5136250  59.4011990  28.6138850  58.1423960  60.7769390
  28.2069150  58.0913470  63.5541370  27.2571860  58.0577010  63.6686360
  28.3882160  59.0013580  63.3191140  14.0613590  56.3415150  52.6640000
  14.7705290  55.9198370  52.1787280  13.3453530  56.4090380  52.0323350
  13.7087750  52.3954480  51.7042650  14.4315880  52.9363420  52.0223870
  13.9812270  52.1217900  50.8284190  27.5179400  57.2646950  55.9714230
  28.0138520  57.0317820  56.7563110  27.3195470  56.4258790  55.5551870
  13.3979940  51.6460670  61.6065270  14.0456130  51.0958050  61.1660430
  13.8181780  51.9003820  62.4281080  28.9466560  55.9007900  58.5051910
  28.8365840  55.7463940  59.4434180  29.7074150  55.3728840  58.2627320
  27.2932280  51.8402030  64.9634910  27.9304500  52.4536170  65.3294100
  27.4407170  51.8762690  64.0184140  29.9095320  54.5026480  54.3714760
  29.1146820  54.4371600  54.9007670  30.1138600  55.4377120  54.3600110
  26.8513740  68.5418030  58.3653150  27.4472810  68.2202600  57.6887570
  27.1091890  68.0689850  59.1566420  13.1511940  51.8016340  64.3490590
  12.8026760  52.2580160  65.1148770  12.8199640  50.9073470  64.4313020
  14.7576310  64.9735940  68.5143780  14.7145940  64.6028850  69.3958240
  14.8887320  65.9113510  68.6545600  18.4582340  66.5295530  64.1153500
  18.2173700  66.7970090  63.2284020  19.3984980  66.7001260  64.1704360
  20.6636760  52.9928220  67.8710010  20.6025650  53.5850050  68.6205420
  21.6037140  52.8854180  67.7260270  23.3011320  52.6498280  67.5102300
  23.9151730  52.9677570  66.8483380  23.8460880  52.1646870  68.1298160
  29.7186500  68.5489910  64.9164140  29.2244780  68.9458780  64.1991270
  29.1099790  67.9239120  65.3101420  13.8232580  51.3292540  67.6241360
  14.3715570  51.1480590  66.8607470  13.8887890  50.5386650  68.1597670
  14.5964340  67.9198190  65.6341560  14.0024660  67.7882890  66.3731600
  14.5888180  67.0836330  65.1683660  24.0419360  51.2130420  63.8371590
  23.1679200  51.5465530  63.6344520  23.9330110  50.7403600  64.6623460
  24.9491340  53.4201290  65.2213310  24.6204700  52.6053050  64.8415040
  25.8973640  53.3771100  65.0979000  27.4025950  69.1913330  62.1950880
  26.9428920  69.9429140  61.8208900  26.7738410  68.4719800  62.1365680
  14.2276570  65.2856570  64.5849600  13.5010630  64.6661860  64.5175550
  14.2885720  65.6797180  63.7147680  17.8321670  67.5001570  61.3699010
  18.3486690  66.8888930  60.8447270  18.4819050  68.0030350  61.8610020
  20.5717170  68.3910060  62.1967990  20.8594980  68.1364360  61.3201000
  21.0840390  67.8387420  62.7873560  21.7894180  52.1300260  62.7764500
  21.0065970  52.6045760  63.0561260  21.4957110  51.2255090  62.6677680
  26.3415250  52.8323360  60.8213590  26.7823340  52.7768460  59.9735190
  26.0722840  53.7481370  60.8923770  28.2053820  52.4638600  58.8322410
  28.1442220  51.5199820  58.6853430  28.9845850  52.5718690  59.3775870
  12.5106570  68.6030960  57.7946360  12.3428610  67.9701640  58.4928250
  11.6441080  68.8090360  57.4440550  13.1334590  52.4347740  55.2978220
  13.8913950  52.5476620  54.7242250  12.6711760  53.2716940  55.2521650
  19.6748400  54.5487010  58.2880530  18.8622910  54.1743900  57.9476410
  20.1790040  53.7932090  58.5901720  24.1773380  51.2129460  59.5263600
  24.7802750  51.7849670  60.0012120  23.4366370  51.7768900  59.3037500
  27.3207980  51.6151020  54.8003880  27.5158610  52.5134470  55.0671310
  26.5337850  51.3838100  55.2936830  14.1169270  67.2964190  55.2396500
  13.5916890  67.6772220  54.5358460  14.0413850  67.9214960  55.9606210
  15.5059740  52.9611790  53.8380190  16.0352500  52.1741590  53.7088140
  16.1388060  53.6402980  54.0715720  17.6997580  52.6986930  56.8925580
  17.0700320  51.9974240  57.0595710  17.1602720  53.4591060  56.6758740
  20.6389530  69.3126160  69.5636190  21.5656840  69.0770430  69.6072150
  20.6239960  70.1398160  69.0822220  28.8734590  68.8551730  56.5610440
  29.0486780  68.1689470  55.9171360  28.1756160  69.3798780  56.1687110
  17.8253140  51.9770910  69.3278070  17.5437410  52.4804510  68.5638890
  18.2072840  51.1792660  68.9620200  16.7162240  69.2446570  54.1145750
  17.4481060  68.9605850  53.5669640  16.9755910  69.0059850  55.0045130
  15.8777030  65.3611300  54.1192080  15.2485910  65.8296400  54.6677910
  15.9924860  64.5160520  54.5538270  24.4268600  51.3924490  69.9058540
  24.3134050  51.7119100  70.8010060  25.2438340  51.7937000  69.6095820
  27.2067090  68.5396020  69.3877230  27.9992410  68.0445250  69.1803190
  27.5000240  69.2186160  69.9952840  23.3326750  59.4116960  40.2693280
  23.2520800  58.4971570  39.9984990  22.9191170  59.9084030  39.5632990
  21.4644790  61.1895980  42.1502550  20.6886890  60.7096420  42.4401120
  22.1157720  60.5101630  41.9758710  15.4810620  61.5015790  43.0278310
  14.6495500  61.2464500  43.4274820  16.0891600  61.5726560  43.7636230
  25.4852220  65.5956170  40.9301680  25.0233750  64.8243410  41.2588850
  26.2977770  65.6222240  41.4354130  15.4611880  65.5355880  43.2236330
  15.7639920  64.6453620  43.0446550  16.2055470  66.0926100  42.9958580
  13.8902570  56.4617680  36.8120700  13.0019270  56.8033650  36.7100580
  14.1743760  56.2618000  35.9201530  11.8535580  59.0623330  42.6960400
  12.4251690  58.2945530  42.6964040  11.8537120  59.3612090  41.7867010
  21.7115530  67.8814180  40.5505670  21.0926970  68.3371680  39.9800110
  22.5667310  68.0365640  40.1495370  20.9053780  63.8653170  42.1572710
  20.8362060  62.9243110  41.9961840  21.6673640  63.9554580  42.7295280
  13.0960450  54.4707690  44.4829330  12.9163290  53.5733440  44.7632090
  12.6940530  55.0179560  45.1576280  21.9358950  56.6723550  42.3841640
  22.3123770  55.7995430  42.2715310  21.8378460  57.0082250  41.4932080
  16.0663960  55.0449180  37.8459080  16.1730710  55.9452910  38.1527840
  15.1556320  54.9967150  37.5553730  25.7183070  54.1673990  39.3169980
  26.5392690  53.6770560  39.3595460  25.7517150  54.7571650  40.0701820
  13.7147120  56.9668190  43.0911670  14.3957230  57.2306560  43.7099070
  13.3995170  56.1269060  43.4249680  17.9071690  58.0135550  42.1784260
  18.4149910  58.5116520  42.8189280  18.4384930  57.2370750  42.0023620
  30.0082620  56.1840740  45.8813610  29.3034790  56.5722450  45.3628720
  30.2740540  56.8791030  46.4834540  16.1907790  52.6534110  46.4447680
  16.1926230  53.1706500  45.6393580  15.3612100  52.1764290  46.4217610
  22.5778880  62.7653420  37.9437580  21.9596150  63.2302870  37.3800300
  23.0902130  63.4580900  38.3607090  17.4410640  62.2929290  44.6221180
  17.1080020  62.9198210  45.2642250  17.6177320  62.8191170  43.8422850
  25.9544550  56.1074370  42.0897520  25.2500120  56.3959260  42.6700630
  26.3156710  56.9174480  41.7297080  15.8723120  54.3644070  44.4518130
  16.2139930  55.2086120  44.1572000  14.9338930  54.5127810  44.5683470
  16.6529740  64.2610090  46.4370360  17.2703740  64.9361170  46.1554810
  15.7922860  64.6698070  46.3457860  11.9462080  63.4509950  35.3177210
  11.5690060  63.9397050  34.5862110  12.2035150  64.1235230  35.9483740
  27.5707330  65.7249500  44.3525000  26.8870850  66.3948610  44.3441670
  28.1101620  65.9230150  43.5869860  29.0231470  55.5529160  42.4806730
  28.0756380  55.5868140  42.6122160  29.3481460  56.3668110  42.8656090
  19.5551010  51.8526340  40.7762720  19.8625990  51.2973230  40.0598220
  18.6251710  51.9870800  40.5935710  25.1066070  67.5693630  43.0670180
  25.1193230  67.1655920  42.1992440  24.5541290  68.3440920  42.9631610
  26.4011490  64.2909850  38.1560350  26.2907820  63.3484180  38.2809770
  26.3979740  64.6525490  39.0423110  24.5051510  62.4723470  44.3952790
  24.9220300  62.2583580  43.5606250  25.2291330  62.7296260  44.9661410
  21.9431770  59.9175170  37.5122840  21.0161050  59.8512550  37.7411310
  22.0956590  60.8555300  37.3978080  21.9300850  56.1892170  34.5090000
  20.9904520  56.3506130  34.5942460  22.2484110  56.9077850  33.9625990
  28.4513610  60.8710690  44.4869030  27.6232240  60.9403780  44.0119160
  29.0464090  61.4565000  44.0184860  25.9729060  61.4795470  38.0158090
  25.3541480  61.1415020  37.3684390  25.9553510  60.8355230  38.7237280
  25.4155620  57.6580010  45.4323900  25.0026800  58.4833720  45.6863890
  24.6831570  57.0725050  45.2400260  17.5488410  60.4439910  40.2942570
  17.1445410  59.7317160  39.7988470  17.6351530  60.0993150  41.1830610
  18.0170110  64.1307470  42.4581780  17.7198400  63.5252940  41.7789560
  18.9669930  64.1684780  42.3471140  16.2617030  57.2183120  44.0741610
  16.8131620  57.3278460  43.2994860  16.7760540  57.5920720  44.7896840
  26.1055720  67.7039340  46.1204880  25.6286280  68.5111530  45.9277490
  25.4217510  67.0517670  46.2731090  17.1088540  63.8689160  49.1089580
  16.2117070  64.0929130  49.3562980  17.1341410  63.9924100  48.1600980
  24.1493760  60.7182280  35.0230840  24.5887040  59.8804710  34.8768660
  24.8622180  61.3511680  35.1094980  15.9359760  60.7402480  47.6846950
  15.7967530  61.6125280  48.0534350  15.0541120  60.3975290  47.5394890
  22.2589140  65.6578350  38.9912080  22.6985050  66.4002680  38.5767470
  22.1976030  65.9004920  39.9151040  17.7340110  66.6824180  49.8932100
  17.7055540  67.0867130  49.0260530  17.5705080  65.7534540  49.7303700
  14.2493040  59.3384890  37.7949220  14.1290640  60.0646980  37.1830490
  13.9393930  58.5687800  37.3177130  29.6854930  67.4651280  51.1896270
  30.1614650  67.9434170  51.8685350  30.3062090  67.3968770  50.4641770
  11.8878410  62.5100030  43.6017860  11.9658830  62.6448800  42.6573580
  12.5020090  61.8015920  43.7945980  13.1326040  64.2100220  40.0124040
  12.7254120  64.3514810  39.1577640  14.0239050  63.9260380  39.8095250
  29.0888180  64.6564130  48.3496280  29.2151240  64.4176010  47.4313460
  29.1309560  63.8248670  48.8218360  22.9504920  68.3592130  46.9191090
  23.4649590  68.2700140  47.7213520  22.1074000  68.7051830  47.2119000
  24.9259320  68.6447470  36.3475090  24.7660460  68.3550410  37.2456920
  24.7606030  67.8687600  35.8120320  17.4047700  68.4246000  38.1246710
  17.2290180  67.5081540  37.9114510  16.5503440  68.7833290  38.3644510
  24.6285450  66.1535030  34.9073090  23.9350610  66.1512320  34.2475370
  25.3708310  65.7294350  34.4767260  24.1935380  67.7797740  38.9821580
  24.6492330  66.9987120  39.2960200  24.5327900  68.4904560  39.5262760
  28.9412190  56.7096590  49.3146020  28.3256460  57.2176260  48.7861480
  28.6208610  55.8094920  49.2571960  11.9437930  63.5514200  46.1412320
  12.1068970  63.0819560  45.3231690  12.4090380  63.0437760  46.8061160
  16.7156700  52.6819960  41.1772890  16.2724850  53.4629500  40.8457410
  17.2741690  53.0049850  41.8843830  21.0026510  55.5488480  46.7808210
  20.5405880  55.7571500  47.5928150  20.6004620  54.7347830  46.4778880
  26.0031020  56.7697430  47.9104870  25.1524610  56.4703180  48.2313940
  25.8432810  57.0139440  46.9988690  23.0980730  58.2699180  50.0103660
  23.4234140  57.4362930  49.6705890  23.8861060  58.7927700  50.1581990
  19.8315520  52.3030660  36.0578720  19.2069700  52.2990530  36.7832030
  19.7445640  51.4361620  35.6614690  18.7532600  53.2267290  43.0362490
  19.0504930  54.1330120  42.9554510  19.3018160  52.7386070  42.4222060
  16.5070920  57.8053530  38.9054140  16.2811840  57.5890700  39.8100760
  15.7263450  58.2381990  38.5600110  23.7368680  57.8116900  37.5044790
  23.1377570  58.5352700  37.3208410  24.2848290  57.7493680  36.7221240
  18.9470130  58.7039110  49.5714410  18.8513730  57.7633840  49.4214810
  19.7902110  58.9254180  49.1762480  22.3433550  56.4480440  39.5348070
  22.7363120  56.7652640  38.7216760  22.7050400  55.5692320  39.6492590
  14.0780670  55.1152780  47.7248190  13.6844060  55.9627990  47.9320970
  13.3899070  54.4779150  47.9156830  20.6525720  55.1987750  50.7944930
  19.9624040  55.0059950  51.4291020  21.3958020  55.4822390  51.3269230
  11.3797720  53.0381240  41.7578270  11.0910770  53.6084100  42.4703250
  12.1243480  52.5585690  42.1209500  11.5667950  56.9801360  32.9680990
  11.4842620  57.9232120  33.1095980  11.2151010  56.8376270  32.0893340
  22.9288690  59.0386190  43.6298850  22.1969810  59.5473000  43.9788950
  22.5313030  58.2216170  43.3287630  19.3666080  55.7140390  42.0351340
  19.3702140  55.2730340  41.1855880  20.2617200  56.0357720  42.1423160
  15.2168460  55.5966880  40.9945550  14.8768510  56.0742110  41.7512600
  14.4545780  55.1432000  40.6346650  19.4286230  56.7152470  35.0258100
  19.5499050  56.6738950  35.9743920  19.0434740  57.5776620  34.8704830
  23.3914600  54.4919870  43.0421790  23.4087340  54.9428520  43.8863640
  23.1430180  53.5925510  43.2555230  18.4407730  59.0253610  34.4241400
  17.8724630  58.5771860  33.7977310  19.1496730  59.3846390  33.8906550
  26.8185350  51.9052050  48.8808170  27.1431120  51.1741710  49.4066150
  26.8541860  51.5865690  47.9789160  13.5176910  62.9265630  48.3008130
  13.1331700  62.2859300  48.8991090  13.8289100  63.6301750  48.8702860
  19.6674050  59.7742170  43.7816750  20.0344180  59.3000740  44.5278090
  19.4779110  60.6483740  44.1225090  12.5314540  54.5185860  39.9110220
  12.2461460  54.1541530  40.7488840  12.4693400  53.7866320  39.2973360
  17.4573420  58.8150810  46.1000960  17.1530490  59.6942790  46.3251320
  18.4119880  58.8750600  46.1358400  15.9855210  63.0211800  36.6967810
  15.2117470  62.4809420  36.5366530  16.7149840  62.5018410  36.3585570
  26.7443190  62.0177160  42.4894200  27.4642310  62.5132450  42.0990310
  26.5425010  61.3395050  41.8448070  22.2053130  53.4115120  36.6323590
  21.3917740  52.9128290  36.5568900  22.0115080  54.2513370  36.2159940
  22.1261990  62.0886220  48.3763200  22.0599300  61.1681890  48.1220790
  21.4967130  62.1861660  49.0907840  24.9201520  57.7834770  34.9285750
  25.8081140  58.0952000  34.7537090  24.8906610  56.9107020  34.5366330
  16.0292610  62.6892180  40.3346620  16.5471280  61.8860440  40.2803510
  15.5776630  62.6271320  41.1763450  20.9162110  63.9558460  35.6073920
  21.2577810  64.7000690  35.1117240  20.0874820  64.2689580  35.9698750
  13.5137150  59.6553550  47.2472320  13.1552090  60.3207400  47.8345660
  13.2191710  58.8237100  47.6184940  16.7150270  60.1137790  50.1311870
  16.4150410  60.2594970  49.2339690  17.4861510  59.5543080  50.0385260
  22.0578720  64.9106790  48.1267000  22.0723260  63.9787750  47.9085910
  21.3503820  64.9966550  48.7656770  27.1915790  59.0946610  34.3965610
  27.1079510  59.5260830  33.5462050  27.9109980  59.5544960  34.8292430
  28.2689930  61.5514130  47.4735580  27.5438120  62.1442910  47.2764970
  28.7965390  61.5437670  46.6748950  28.2203040  65.9488870  37.1247740
  27.5779200  65.2944490  37.3991460  27.8333700  66.3543960  36.3488410
  23.7989520  63.2774300  40.9719430  24.1513340  62.6802430  40.3120800
  22.9151850  62.9518530  41.1427680  19.8852800  64.0371990  38.3789840
  20.5723930  64.5841200  38.7597430  19.0985220  64.5812720  38.4139450
  12.0245200  59.6544810  33.8706920  12.8940050  59.9369610  34.1542840
  11.5335520  60.4680680  33.7555730  19.1880010  61.0418020  37.9915200
  19.6442790  61.8523270  38.2175390  18.8368220  60.7241160  38.8233690
  21.4912620  66.5524360  45.2207500  22.1354840  66.7583740  45.8980920
  21.8542060  65.7912760  44.7678350  15.0891790  51.3855670  38.4637720
  14.9606420  51.3773570  39.4122640  14.2653810  51.7238760  38.1128730
  22.7644700  64.5556710  43.9384950  23.4066930  63.8549870  44.0517120
  23.2894050  65.3355150  43.7581840  26.6100420  64.8405330  33.6624090
  26.3838000  64.1235770  34.2548730  26.2196620  64.5917770  32.8245840
  24.5382320  65.3551610  47.1421010  24.8738560  65.9418300  47.8198930
  23.6182660  65.2244320  47.3718800  12.3916450  68.8672190  34.4368550
  12.7514090  69.4661530  33.7825820  12.2508790  69.4132080  35.2103580
  12.0885720  53.1446790  47.9244420  11.3744240  53.3443710  48.5297030
  12.5080760  52.3686360  48.2959220  26.1916670  62.7577270  35.3238250
  25.9038370  63.2189960  36.1116130  26.9868840  62.2975040  35.5922470
  12.3758310  67.1327050  48.9110950  12.4849430  66.1921790  48.7706340
  11.7238870  67.3981800  48.2624680  20.3670900  65.4042940  50.3109070
  20.0467770  64.6852180  50.8554760  19.6929260  66.0798010  50.3845130
  18.4085070  66.2503390  35.2542220  18.3995170  66.9833080  34.6386730
  17.4883430  66.0034970  35.3469180  14.0091710  61.4718280  35.9988980
  13.4019660  62.2117180  36.0084280  14.4841060  61.5617640  35.1727180
  23.5824500  55.6369100  45.6745870  23.9505320  54.8164310  46.0025440
  22.7222700  55.6970990  46.0901520  26.9486530  54.5926040  36.4833430
  26.3199690  54.6971710  35.7691660  26.4538450  54.8122820  37.2727310
  21.3944670  66.3131630  33.9167410  21.4956650  66.1095620  32.9869390
  20.4946410  66.0589910  34.1215190  18.9170560  56.8711990  37.8991310
  18.2086710  57.3398330  38.3404920  19.2015040  56.2134000  38.5336500
  20.5426490  58.2908690  45.8983840  21.0411740  58.7654510  46.5635690
  20.6849440  57.3672210  46.1053870  22.9485990  53.5962650  39.3387100
  22.8253770  53.6148780  38.3896610  23.8970550  53.6441590  39.4585500
  20.0362780  68.8317950  38.6115080  20.2904280  68.7939340  37.6894450
  19.0875260  68.7051280  38.6043330  17.1205580  55.1797070  35.2742020
  17.9696110  55.6167220  35.2082210  16.7536850  55.4917330  36.1014080
  27.7493350  54.5076650  46.7412230  27.2466950  55.2482050  47.0806040
  28.5650010  54.8960650  46.4249020  26.0415360  59.7509830  40.1873590
  25.1005500  59.7660060  40.3621280  26.3559430  58.9645790  40.6333890
  16.0197000  61.4329430  33.7477550  16.7860270  61.3210790  34.3102980
  16.0971690  60.7367400  33.0954320  14.7143760  58.8654500  34.4310440
  14.7947350  57.9182010  34.5427840  15.6063510  59.1961380  34.5371100
  28.0440940  66.9218680  41.8627850  28.1688360  67.7449850  42.3351660
  28.9106500  66.7109410  41.5152000  15.5158470  69.0149890  41.5344980
  16.2520950  68.4665350  41.8053550  15.8999390  69.8805900  41.3950970
  12.4003950  65.0823460  37.4086490  11.4743730  65.3244600  37.3991900
  12.8660380  65.9097720  37.2871240  14.5216750  68.1995960  50.7230560
  15.3229480  68.5208010  51.1365960  14.0068570  67.8391540  51.4450470
  18.6260780  68.1880200  33.3570550  19.4189390  68.4769030  32.9052340
  18.1065130  67.7572370  32.6783030  23.3581380  64.3075830  50.6705970
  22.7519540  64.3307430  49.9301720  23.0535490  63.5758870  51.2073220
  24.7881750  68.0356120  49.2815380  25.7403500  67.9514140  49.2315620
  24.6409970  68.6997830  49.9549170  27.6790950  67.4150330  34.7807290
  27.3932460  67.0015470  33.9661470  27.4810500  68.3438040  34.6607810
  12.2414560  60.6869420  49.6666610  12.7453580  60.1076700  50.2382840
  11.5021980  60.9709650  50.2042980  19.1438180  63.4083610  33.2212900
  19.0388820  62.7935960  33.9474280  18.9762400  62.8849500  32.4375910
  19.2952500  62.0940410  49.2002130  18.5298170  62.6625410  49.1156800
  19.4768460  61.8016620  48.3070360  22.3840910  62.4703640  33.8254890
  21.8351010  62.9172940  34.4697630  23.0060170  61.9652890  34.3492560
  26.4375850  63.8245740  49.7577150  27.1785320  64.1621500  49.2544610
  25.6748530  63.9937800  49.2046920  14.2737640  58.8299010  50.5616680
  14.3142980  58.5312880  51.4701910  15.1283140  59.2306620  50.4024200
  18.0516030  61.4294560  35.7220190  18.4732450  61.2634430  36.5651580
  18.1766870  60.6194790  35.2275330  16.2143450  57.4091110  48.5291170
  15.6839910  56.9182060  47.9014510  16.8831520  57.8375310  47.9949100
  20.5643670  60.4532170  32.9697290  21.0849330  59.7381190  32.6038440
  21.2112070  61.0918040  33.2697800  25.1121510  61.8760570  48.2932360
  25.5262530  62.0305650  49.1422780  24.1772510  62.0015790  48.4558140
  25.5843680  59.2156730  50.2971510  26.1664450  58.4609050  50.2091990
  25.7605450  59.7464170  49.5202990  16.7015750  54.3753480  48.6088460
  16.6072620  53.7574230  47.8839330  16.1213140  55.1019770  48.3818370
  19.4677190  52.9326720  45.6415850  19.0194490  52.9550980  44.7961400
  18.8342390  52.5345740  46.2386150  19.8736740  61.8281050  46.2628290
  20.2924850  62.6713780  46.0904530  18.9545370  61.9653090  46.0335070
  22.2100640  59.5597230  47.6466130  22.3296850  58.9638370  48.3860970
  23.0694640  59.5966920  47.2267430  24.5488540  60.1134420  46.2228640
  24.0223760  60.6377040  45.6193780  24.8919880  60.7461810  46.8538370
  16.9474930  57.5027790  32.6678350  16.7463990  56.6395150  33.0291690
  16.7766980  57.4161150  31.7299950  17.7244160  68.1334060  47.3786020
  17.1865250  68.8580120  47.0594720  17.9778120  67.6564400  46.5883360
  18.9769410  56.1018580  48.9041950  19.5669100  55.7934430  49.5919770
  18.1589650  55.6298330  49.0601850  23.7962840  55.7184390  49.1374970
  23.1078360  55.0565930  49.0724960  24.5168860  55.2722660  49.5823430
  24.4263240  52.3136020  35.1965230  24.7065530  51.4703920  35.5524650
  23.6528970  52.5459130  35.7103980  15.7457730  54.6028410  32.6556230
  16.0483630  54.6095840  31.7475380  16.4852320  54.2526270  33.1523890
  20.5806370  69.3685270  47.6372670  20.5065070  70.2720410  47.9445040
  19.6785210  69.0497170  47.6094740  18.9642660  53.5463030  33.6412430
  18.6164660  52.8687020  33.0614880  19.1655430  53.0852540  34.4555820
  21.1291700  68.5343780  35.2599030  22.0242490  68.8728750  35.2817790
  21.1609330  67.8123190  34.6323310  14.7687860  63.9070830  33.4886030
  15.2062730  64.4500500  34.1443610  15.2535590  63.0817780  33.4982370
  11.9833660  66.6959860  40.9406290  12.3136670  65.8280920  40.7084930
  12.4124660  66.9018380  41.7711250  16.5795580  65.0268870  38.6008260
  16.2791120  64.9033840  39.5012170  16.4733070  64.1677460  38.1923990
  12.4723870  67.5630450  43.6787920  12.0354860  67.7431250  44.5112070
  13.0401550  68.3205070  43.5369640  28.1086050  67.0647450  47.9665230
  27.5088040  67.1240010  47.2229150  28.2379950  66.1252430  48.0962080
  29.3487500  64.8065270  33.3034940  28.5180460  64.8741920  33.7742170
  29.5259330  65.6969390  33.0001800  28.8043960  61.5512750  35.8069140
  29.5662870  62.1209400  35.9128830  28.8198330  60.9839950  36.5777450
  12.3048300  60.0750680  40.0376800  11.6497140  59.8062320  39.3936500
  13.1426250  59.9655160  39.5878780  29.8103930  62.4062850  40.6511070
  30.1812760  61.6230170  40.2447040  30.4505860  63.0951950  40.4728370
  26.7937690  63.7899430  46.0641390  25.9797530  64.2196590  46.3267180
  27.2011890  64.4017840  45.4510440  28.8563130  61.8447120  32.9641660
  29.1311970  62.7526000  32.8360880  28.6673870  61.7809650  33.9003650
  25.2538740  54.8691970  34.2595290  25.6723620  54.6822950  33.4191950
  24.9474800  54.0171020  34.5698220  28.7528470  59.7816110  37.9571090
  28.3772070  59.0144040  37.5252380  28.0231590  60.1638810  38.4446020
  13.3424230  60.4603250  44.5780140  13.7097270  60.3730650  45.4576160
  12.7735050  59.6969800  44.4787000  28.1428090  58.9287630  47.5910610
  27.9114180  58.7000380  46.6908560  28.4032640  59.8487180  47.5455500
  12.8940230  57.3712340  48.4838560  11.9996280  57.3379100  48.8232270
  13.4337780  57.5699130  49.2489810  26.5816160  54.1544060  50.3690310
  27.4586340  54.1627460  50.7524310  26.5937000  53.4174900  49.7582660
  11.5186380  57.2849610  35.9802130  10.6150460  57.5479810  35.8053790
  12.0027000  57.5560780  35.2002090  28.0279430  58.0073600  41.2578330
  28.5516910  57.5136250  40.6268500  28.6138850  58.1423960  42.0025900
  28.2069150  58.0913470  44.7797880  27.2571860  58.0577010  44.8942870
  28.3882160  59.0013580  44.5447650  14.0613590  56.3415150  33.8896510
  14.7705290  55.9198370  33.4043790  13.3453530  56.4090380  33.2579860
  13.7087750  52.3954480  32.9299160  14.4315880  52.9363420  33.2480380
  13.9812270  52.1217900  32.0540700  27.5179400  57.2646950  37.1970740
  28.0138520  57.0317820  37.9819620  27.3195470  56.4258790  36.7808380
  13.3979940  51.6460670  42.8321780  14.0456130  51.0958050  42.3916940
  13.8181780  51.9003820  43.6537590  28.9466560  55.9007900  39.7308420
  28.8365840  55.7463940  40.6690690  29.7074150  55.3728840  39.4883830
  29.9095320  54.5026480  35.5971270  29.1146820  54.4371600  36.1264180
  30.1138600  55.4377120  35.5856620  26.8513740  68.5418030  39.5909660
  27.4472810  68.2202600  38.9144080  27.1091890  68.0689850  40.3822930
  13.1511940  51.8016340  45.5747100  12.8026760  52.2580160  46.3405280
  12.8199640  50.9073470  45.6569530  14.7576310  64.9735940  49.7400290
  14.7145940  64.6028850  50.6214750  14.8887320  65.9113510  49.8802110
  18.4582340  66.5295530  45.3410010  18.2173700  66.7970090  44.4540530
  19.3984980  66.7001260  45.3960870  20.6636760  52.9928220  49.0966520
  20.6025650  53.5850050  49.8461930  21.6037140  52.8854180  48.9516780
  23.3011320  52.6498280  48.7358810  23.9151730  52.9677570  48.0739890
  23.8460880  52.1646870  49.3554670  29.7186500  68.5489910  46.1420650
  29.2244780  68.9458780  45.4247780  29.1099790  67.9239120  46.5357930
  13.8232580  51.3292540  48.8497870  14.3715570  51.1480590  48.0863980
  13.8887890  50.5386650  49.3854180  14.5964340  67.9198190  46.8598070
  14.0024660  67.7882890  47.5988110  14.5888180  67.0836330  46.3940170
  24.0419360  51.2130420  45.0628100  23.1679200  51.5465530  44.8601030
  23.9330110  50.7403600  45.8879970  24.9491340  53.4201290  46.4469820
  24.6204700  52.6053050  46.0671550  25.8973640  53.3771100  46.3235510
  27.4025950  69.1913330  43.4207390  26.9428920  69.9429140  43.0465410
  26.7738410  68.4719800  43.3622190  14.2276570  65.2856570  45.8106110
  13.5010630  64.6661860  45.7432060  14.2885720  65.6797180  44.9404190
  17.8321670  67.5001570  42.5955520  18.3486690  66.8888930  42.0703780
  18.4819050  68.0030350  43.0866530  20.5717170  68.3910060  43.4224500
  20.8594980  68.1364360  42.5457510  21.0840390  67.8387420  44.0130070
  21.7894180  52.1300260  44.0021010  21.0065970  52.6045760  44.2817770
  21.4957110  51.2255090  43.8934190  12.5106570  68.6030960  39.0202870
  12.3428610  67.9701640  39.7184760  11.6441080  68.8090360  38.6697060
  13.1334590  52.4347740  36.5234730  13.8913950  52.5476620  35.9498760
  12.6711760  53.2716940  36.4778160  19.6748400  54.5487010  39.5137040
  18.8622910  54.1743900  39.1732920  20.1790040  53.7932090  39.8158230
  27.3207980  51.6151020  36.0260390  27.5158610  52.5134470  36.2927820
  26.5337850  51.3838100  36.5193340  14.1169270  67.2964190  36.4653010
  13.5916890  67.6772220  35.7614970  14.0413850  67.9214960  37.1862720
  15.5059740  52.9611790  35.0636700  16.0352500  52.1741590  34.9344650
  16.1388060  53.6402980  35.2972230  17.6997580  52.6986930  38.1182090
  17.0700320  51.9974240  38.2852220  17.1602720  53.4591060  37.9015250
  20.6389530  69.3126160  50.7892700  21.5656840  69.0770430  50.8328660
  20.6239960  70.1398160  50.3078730  28.8734590  68.8551730  37.7866950
  29.0486780  68.1689470  37.1427870  28.1756160  69.3798780  37.3943620
  17.8253140  51.9770910  50.5534580  17.5437410  52.4804510  49.7895400
  18.2072840  51.1792660  50.1876710  16.7162240  69.2446570  35.3402260
  17.4481060  68.9605850  34.7926150  16.9755910  69.0059850  36.2301640
  15.8777030  65.3611300  35.3448590  15.2485910  65.8296400  35.8934420
  15.9924860  64.5160520  35.7794780  24.4268600  51.3924490  51.1315050
  24.3134050  51.7119100  52.0266570  25.2438340  51.7937000  50.8352330
  27.2067090  68.5396020  50.6133740  27.9992410  68.0445250  50.4059700
  27.5000240  69.2186160  51.2209350  21.4644790  61.1895980  23.3759060
  20.6886890  60.7096420  23.6657630  22.1157720  60.5101630  23.2015220
  15.4810620  61.5015790  24.2534820  14.6495500  61.2464500  24.6531330
  16.0891600  61.5726560  24.9892740  25.4852220  65.5956170  22.1558190
  25.0233750  64.8243410  22.4845360  26.2977770  65.6222240  22.6610640
  15.4611880  65.5355880  24.4492840  15.7639920  64.6453620  24.2703060
  16.2055470  66.0926100  24.2215090  13.8902570  56.4617680  18.0377210
  13.0019270  56.8033650  17.9357090  14.1743760  56.2618000  17.1458040
  11.8535580  59.0623330  23.9216910  12.4251690  58.2945530  23.9220550
  11.8537120  59.3612090  23.0123520  21.7115530  67.8814180  21.7762180
  21.0926970  68.3371680  21.2056620  22.5667310  68.0365640  21.3751880
  20.9053780  63.8653170  23.3829220  20.8362060  62.9243110  23.2218350
  21.6673640  63.9554580  23.9551790  13.0960450  54.4707690  25.7085840
  12.9163290  53.5733440  25.9888600  12.6940530  55.0179560  26.3832790
  16.0663960  55.0449180  19.0715590  16.1730710  55.9452910  19.3784350
  15.1556320  54.9967150  18.7810240  13.7147120  56.9668190  24.3168180
  14.3957230  57.2306560  24.9355580  13.3995170  56.1269060  24.6506190
  17.9071690  58.0135550  23.4040770  18.4149910  58.5116520  24.0445790
  18.4384930  57.2370750  23.2280130  16.1907790  52.6534110  27.6704190
  16.1926230  53.1706500  26.8650090  15.3612100  52.1764290  27.6474120
  22.5778880  62.7653420  19.1694090  21.9596150  63.2302870  18.6056810
  23.0902130  63.4580900  19.5863600  17.4410640  62.2929290  25.8477690
  17.1080020  62.9198210  26.4898760  17.6177320  62.8191170  25.0679360
  15.8723120  54.3644070  25.6774640  16.2139930  55.2086120  25.3828510
  14.9338930  54.5127810  25.7939980  16.6529740  64.2610090  27.6626870
  17.2703740  64.9361170  27.3811320  15.7922860  64.6698070  27.5714370
  11.9462080  63.4509950  16.5433720  11.5690060  63.9397050  15.8118620
  12.2035150  64.1235230  17.1740250  27.5707330  65.7249500  25.5781510
  26.8870850  66.3948610  25.5698180  28.1101620  65.9230150  24.8126370
  19.5551010  51.8526340  22.0019230  19.8625990  51.2973230  21.2854730
  18.6251710  51.9870800  21.8192220  25.1066070  67.5693630  24.2926690
  25.1193230  67.1655920  23.4248950  24.5541290  68.3440920  24.1888120
  26.4011490  64.2909850  19.3816860  26.2907820  63.3484180  19.5066280
  26.3979740  64.6525490  20.2679620  24.5051510  62.4723470  25.6209300
  24.9220300  62.2583580  24.7862760  25.2291330  62.7296260  26.1917920
  21.9431770  59.9175170  18.7379350  21.0161050  59.8512550  18.9667820
  22.0956590  60.8555300  18.6234590  21.9300850  56.1892170  15.7346510
  20.9904520  56.3506130  15.8198970  22.2484110  56.9077850  15.1882500
  25.9729060  61.4795470  19.2414600  25.3541480  61.1415020  18.5940900
  25.9553510  60.8355230  19.9493790  17.5488410  60.4439910  21.5199080
  17.1445410  59.7317160  21.0244980  17.6351530  60.0993150  22.4087120
  18.0170110  64.1307470  23.6838290  17.7198400  63.5252940  23.0046070
  18.9669930  64.1684780  23.5727650  16.2617030  57.2183120  25.2998120
  16.8131620  57.3278460  24.5251370  16.7760540  57.5920720  26.0153350
  26.1055720  67.7039340  27.3461390  25.6286280  68.5111530  27.1534000
  25.4217510  67.0517670  27.4987600  17.1088540  63.8689160  30.3346090
  16.2117070  64.0929130  30.5819490  17.1341410  63.9924100  29.3857490
  24.1493760  60.7182280  16.2487350  24.5887040  59.8804710  16.1025170
  24.8622180  61.3511680  16.3351490  15.9359760  60.7402480  28.9103460
  15.7967530  61.6125280  29.2790860  15.0541120  60.3975290  28.7651400
  22.2589140  65.6578350  20.2168590  22.6985050  66.4002680  19.8023980
  22.1976030  65.9004920  21.1407550  17.7340110  66.6824180  31.1188610
  17.7055540  67.0867130  30.2517040  17.5705080  65.7534540  30.9560210
  14.2493040  59.3384890  19.0205730  14.1290640  60.0646980  18.4087000
  13.9393930  58.5687800  18.5433640  29.6854930  67.4651280  32.4152780
  30.1614650  67.9434170  33.0941860  30.3062090  67.3968770  31.6898280
  11.8878410  62.5100030  24.8274370  11.9658830  62.6448800  23.8830090
  12.5020090  61.8015920  25.0202490  13.1326040  64.2100220  21.2380550
  12.7254120  64.3514810  20.3834150  14.0239050  63.9260380  21.0351760
  29.0888180  64.6564130  29.5752790  29.2151240  64.4176010  28.6569970
  29.1309560  63.8248670  30.0474870  22.9504920  68.3592130  28.1447600
  23.4649590  68.2700140  28.9470030  22.1074000  68.7051830  28.4375510
  24.9259320  68.6447470  17.5731600  24.7660460  68.3550410  18.4713430
  24.7606030  67.8687600  17.0376830  17.4047700  68.4246000  19.3503220
  17.2290180  67.5081540  19.1371020  16.5503440  68.7833290  19.5901020
  24.6285450  66.1535030  16.1329600  23.9350610  66.1512320  15.4731880
  25.3708310  65.7294350  15.7023770  24.1935380  67.7797740  20.2078090
  24.6492330  66.9987120  20.5216710  24.5327900  68.4904560  20.7519270
  28.9412190  56.7096590  30.5402530  28.3256460  57.2176260  30.0117990
  28.6208610  55.8094920  30.4828470  11.9437930  63.5514200  27.3668830
  12.1068970  63.0819560  26.5488200  12.4090380  63.0437760  28.0317670
  16.7156700  52.6819960  22.4029400  16.2724850  53.4629500  22.0713920
  17.2741690  53.0049850  23.1100340  21.0026510  55.5488480  28.0064720
  20.5405880  55.7571500  28.8184660  20.6004620  54.7347830  27.7035390
  23.0980730  58.2699180  31.2360170  23.4234140  57.4362930  30.8962400
  23.8861060  58.7927700  31.3838500  19.8315520  52.3030660  17.2835230
  19.2069700  52.2990530  18.0088540  19.7445640  51.4361620  16.8871200
  18.7532600  53.2267290  24.2619000  19.0504930  54.1330120  24.1811020
  19.3018160  52.7386070  23.6478570  16.5070920  57.8053530  20.1310650
  16.2811840  57.5890700  21.0357270  15.7263450  58.2381990  19.7856620
  18.9470130  58.7039110  30.7970920  18.8513730  57.7633840  30.6471320
  19.7902110  58.9254180  30.4018990  14.0780670  55.1152780  28.9504700
  13.6844060  55.9627990  29.1577480  13.3899070  54.4779150  29.1413340
  20.6525720  55.1987750  32.0201440  19.9624040  55.0059950  32.6547530
  21.3958020  55.4822390  32.5525740  11.3797720  53.0381240  22.9834780
  11.0910770  53.6084100  23.6959760  12.1243480  52.5585690  23.3466010
  11.5667950  56.9801360  14.1937500  11.4842620  57.9232120  14.3352490
  11.2151010  56.8376270  13.3149850  22.9288690  59.0386190  24.8555360
  22.1969810  59.5473000  25.2045460  22.5313030  58.2216170  24.5544140
  19.3666080  55.7140390  23.2607850  19.3702140  55.2730340  22.4112390
  20.2617200  56.0357720  23.3679670  15.2168460  55.5966880  22.2202060
  14.8768510  56.0742110  22.9769110  14.4545780  55.1432000  21.8603160
  19.4286230  56.7152470  16.2514610  19.5499050  56.6738950  17.2000430
  19.0434740  57.5776620  16.0961340  18.4407730  59.0253610  15.6497910
  17.8724630  58.5771860  15.0233820  19.1496730  59.3846390  15.1163060
  13.5176910  62.9265630  29.5264640  13.1331700  62.2859300  30.1247600
  13.8289100  63.6301750  30.0959370  19.6674050  59.7742170  25.0073260
  20.0344180  59.3000740  25.7534600  19.4779110  60.6483740  25.3481600
  12.5314540  54.5185860  21.1366730  12.2461460  54.1541530  21.9745350
  12.4693400  53.7866320  20.5229870  17.4573420  58.8150810  27.3257470
  17.1530490  59.6942790  27.5507830  18.4119880  58.8750600  27.3614910
  15.9855210  63.0211800  17.9224320  15.2117470  62.4809420  17.7623040
  16.7149840  62.5018410  17.5842080  26.7443190  62.0177160  23.7150710
  27.4642310  62.5132450  23.3246820  26.5425010  61.3395050  23.0704580
  22.2053130  53.4115120  17.8580100  21.3917740  52.9128290  17.7825410
  22.0115080  54.2513370  17.4416450  22.1261990  62.0886220  29.6019710
  22.0599300  61.1681890  29.3477300  21.4967130  62.1861660  30.3164350
  24.9201520  57.7834770  16.1542260  25.8081140  58.0952000  15.9793600
  24.8906610  56.9107020  15.7622840  16.0292610  62.6892180  21.5603130
  16.5471280  61.8860440  21.5060020  15.5776630  62.6271320  22.4019960
  20.9162110  63.9558460  16.8330430  21.2577810  64.7000690  16.3373750
  20.0874820  64.2689580  17.1955260  13.5137150  59.6553550  28.4728830
  13.1552090  60.3207400  29.0602170  13.2191710  58.8237100  28.8441450
  16.7150270  60.1137790  31.3568380  16.4150410  60.2594970  30.4596200
  17.4861510  59.5543080  31.2641770  22.0578720  64.9106790  29.3523510
  22.0723260  63.9787750  29.1342420  21.3503820  64.9966550  29.9913280
  27.1915790  59.0946610  15.6222120  27.1079510  59.5260830  14.7718560
  27.9109980  59.5544960  16.0548940  28.2203040  65.9488870  18.3504250
  27.5779200  65.2944490  18.6247970  27.8333700  66.3543960  17.5744920
  23.7989520  63.2774300  22.1975940  24.1513340  62.6802430  21.5377310
  22.9151850  62.9518530  22.3684190  19.8852800  64.0371990  19.6046350
  20.5723930  64.5841200  19.9853940  19.0985220  64.5812720  19.6395960
  12.0245200  59.6544810  15.0963430  12.8940050  59.9369610  15.3799350
  11.5335520  60.4680680  14.9812240  19.1880010  61.0418020  19.2171710
  19.6442790  61.8523270  19.4431900  18.8368220  60.7241160  20.0490200
  21.4912620  66.5524360  26.4464010  22.1354840  66.7583740  27.1237430
  21.8542060  65.7912760  25.9934860  15.0891790  51.3855670  19.6894230
  14.9606420  51.3773570  20.6379150  14.2653810  51.7238760  19.3385240
  22.7644700  64.5556710  25.1641460  23.4066930  63.8549870  25.2773630
  23.2894050  65.3355150  24.9838350  26.6100420  64.8405330  14.8880600
  26.3838000  64.1235770  15.4805240  26.2196620  64.5917770  14.0502350
  24.5382320  65.3551610  28.3677520  24.8738560  65.9418300  29.0455440
  23.6182660  65.2244320  28.5975310  12.3916450  68.8672190  15.6625060
  12.7514090  69.4661530  15.0082330  12.2508790  69.4132080  16.4360090
  12.0885720  53.1446790  29.1500930  11.3744240  53.3443710  29.7553540
  12.5080760  52.3686360  29.5215730  26.1916670  62.7577270  16.5494760
  25.9038370  63.2189960  17.3372640  26.9868840  62.2975040  16.8178980
  12.3758310  67.1327050  30.1367460  12.4849430  66.1921790  29.9962850
  11.7238870  67.3981800  29.4881190  20.3670900  65.4042940  31.5365580
  20.0467770  64.6852180  32.0811270  19.6929260  66.0798010  31.6101640
  18.4085070  66.2503390  16.4798730  18.3995170  66.9833080  15.8643240
  17.4883430  66.0034970  16.5725690  14.0091710  61.4718280  17.2245490
  13.4019660  62.2117180  17.2340790  14.4841060  61.5617640  16.3983690
  21.3944670  66.3131630  15.1423920  21.4956650  66.1095620  14.2125900
  20.4946410  66.0589910  15.3471700  18.9170560  56.8711990  19.1247820
  18.2086710  57.3398330  19.5661430  19.2015040  56.2134000  19.7593010
  20.5426490  58.2908690  27.1240350  21.0411740  58.7654510  27.7892200
  20.6849440  57.3672210  27.3310380  20.0362780  68.8317950  19.8371590
  20.2904280  68.7939340  18.9150960  19.0875260  68.7051280  19.8299840
  17.1205580  55.1797070  16.4998530  17.9696110  55.6167220  16.4338720
  16.7536850  55.4917330  17.3270590  16.0197000  61.4329430  14.9734060
  16.7860270  61.3210790  15.5359490  16.0971690  60.7367400  14.3210830
  14.7143760  58.8654500  15.6566950  14.7947350  57.9182010  15.7684350
  15.6063510  59.1961380  15.7627610  28.0440940  66.9218680  23.0884360
  28.1688360  67.7449850  23.5608170  28.9106500  66.7109410  22.7408510
  15.5158470  69.0149890  22.7601490  16.2520950  68.4665350  23.0310060
  15.8999390  69.8805900  22.6207480  12.4003950  65.0823460  18.6343000
  11.4743730  65.3244600  18.6248410  12.8660380  65.9097720  18.5127750
  14.5216750  68.1995960  31.9487070  15.3229480  68.5208010  32.3622470
  14.0068570  67.8391540  32.6706980  18.6260780  68.1880200  14.5827060
  19.4189390  68.4769030  14.1308850  18.1065130  67.7572370  13.9039540
  23.3581380  64.3075830  31.8962480  22.7519540  64.3307430  31.1558230
  23.0535490  63.5758870  32.4329730  24.7881750  68.0356120  30.5071890
  25.7403500  67.9514140  30.4572130  24.6409970  68.6997830  31.1805680
  27.6790950  67.4150330  16.0063800  27.3932460  67.0015470  15.1917980
  27.4810500  68.3438040  15.8864320  12.2414560  60.6869420  30.8923120
  12.7453580  60.1076700  31.4639350  11.5021980  60.9709650  31.4299490
  19.1438180  63.4083610  14.4469410  19.0388820  62.7935960  15.1730790
  18.9762400  62.8849500  13.6632420  19.2952500  62.0940410  30.4258640
  18.5298170  62.6625410  30.3413310  19.4768460  61.8016620  29.5326870
  22.3840910  62.4703640  15.0511400  21.8351010  62.9172940  15.6954140
  23.0060170  61.9652890  15.5749070  26.4375850  63.8245740  30.9833660
  27.1785320  64.1621500  30.4801120  25.6748530  63.9937800  30.4303430
  14.2737640  58.8299010  31.7873190  14.3142980  58.5312880  32.6958420
  15.1283140  59.2306620  31.6280710  18.0516030  61.4294560  16.9476700
  18.4732450  61.2634430  17.7908090  18.1766870  60.6194790  16.4531840
  16.2143450  57.4091110  29.7547680  15.6839910  56.9182060  29.1271020
  16.8831520  57.8375310  29.2205610  20.5643670  60.4532170  14.1953800
  21.0849330  59.7381190  13.8294950  21.2112070  61.0918040  14.4954310
  25.1121510  61.8760570  29.5188870  25.5262530  62.0305650  30.3679290
  24.1772510  62.0015790  29.6814650  25.5843680  59.2156730  31.5228020
  26.1664450  58.4609050  31.4348500  25.7605450  59.7464170  30.7459500
  16.7015750  54.3753480  29.8344970  16.6072620  53.7574230  29.1095840
  16.1213140  55.1019770  29.6074880  19.4677190  52.9326720  26.8672360
  19.0194490  52.9550980  26.0217910  18.8342390  52.5345740  27.4642660
  19.8736740  61.8281050  27.4884800  20.2924850  62.6713780  27.3161040
  18.9545370  61.9653090  27.2591580  22.2100640  59.5597230  28.8722640
  22.3296850  58.9638370  29.6117480  23.0694640  59.5966920  28.4523940
  24.5488540  60.1134420  27.4485150  24.0223760  60.6377040  26.8450290
  24.8919880  60.7461810  28.0794880  16.9474930  57.5027790  13.8934860
  16.7463990  56.6395150  14.2548200  16.7766980  57.4161150  12.9556460
  17.7244160  68.1334060  28.6042530  17.1865250  68.8580120  28.2851230
  17.9778120  67.6564400  27.8139870  18.9769410  56.1018580  30.1298460
  19.5669100  55.7934430  30.8176280  18.1589650  55.6298330  30.2858360
  23.7962840  55.7184390  30.3631480  23.1078360  55.0565930  30.2981470
  24.5168860  55.2722660  30.8079940  15.7457730  54.6028410  13.8812740
  16.0483630  54.6095840  12.9731890  16.4852320  54.2526270  14.3780400
  20.5806370  69.3685270  28.8629180  20.5065070  70.2720410  29.1701550
  19.6785210  69.0497170  28.8351250  18.9642660  53.5463030  14.8668940
  18.6164660  52.8687020  14.2871390  19.1655430  53.0852540  15.6812330
  21.1291700  68.5343780  16.4855540  22.0242490  68.8728750  16.5074300
  21.1609330  67.8123190  15.8579820  14.7687860  63.9070830  14.7142540
  15.2062730  64.4500500  15.3700120  15.2535590  63.0817780  14.7238880
  11.9833660  66.6959860  22.1662800  12.3136670  65.8280920  21.9341440
  12.4124660  66.9018380  22.9967760  16.5795580  65.0268870  19.8264770
  16.2791120  64.9033840  20.7268680  16.4733070  64.1677460  19.4180500
  12.4723870  67.5630450  24.9044430  12.0354860  67.7431250  25.7368580
  13.0401550  68.3205070  24.7626150  28.1086050  67.0647450  29.1921740
  27.5088040  67.1240010  28.4485660  28.2379950  66.1252430  29.3218590
  29.3487500  64.8065270  14.5291450  28.5180460  64.8741920  14.9998680
  29.5259330  65.6969390  14.2258310  28.8043960  61.5512750  17.0325650
  29.5662870  62.1209400  17.1385340  28.8198330  60.9839950  17.8033960
  12.3048300  60.0750680  21.2633310  11.6497140  59.8062320  20.6193010
  13.1426250  59.9655160  20.8135290  29.8103930  62.4062850  21.8767580
  30.1812760  61.6230170  21.4703550  30.4505860  63.0951950  21.6984880
  26.7937690  63.7899430  27.2897900  25.9797530  64.2196590  27.5523690
  27.2011890  64.4017840  26.6766950  28.8563130  61.8447120  14.1898170
  29.1311970  62.7526000  14.0617390  28.6673870  61.7809650  15.1260160
  28.7528470  59.7816110  19.1827600  28.3772070  59.0144040  18.7508890
  28.0231590  60.1638810  19.6702530  13.3424230  60.4603250  25.8036650
  13.7097270  60.3730650  26.6832670  12.7735050  59.6969800  25.7043510
  12.8940230  57.3712340  29.7095070  11.9996280  57.3379100  30.0488780
  13.4337780  57.5699130  30.4746320  26.5816160  54.1544060  31.5946820
  27.4586340  54.1627460  31.9780820  26.5937000  53.4174900  30.9839170
  11.5186380  57.2849610  17.2058640  10.6150460  57.5479810  17.0310300
  12.0027000  57.5560780  16.4258600  14.0613590  56.3415150  15.1153020
  14.7705290  55.9198370  14.6300300  13.3453530  56.4090380  14.4836370
  13.7087750  52.3954480  14.1555670  14.4315880  52.9363420  14.4736890
  13.9812270  52.1217900  13.2797210  13.3979940  51.6460670  24.0578290
  14.0456130  51.0958050  23.6173450  13.8181780  51.9003820  24.8794100
  26.8513740  68.5418030  20.8166170  27.4472810  68.2202600  20.1400590
  27.1091890  68.0689850  21.6079440  13.1511940  51.8016340  26.8003610
  12.8026760  52.2580160  27.5661790  12.8199640  50.9073470  26.8826040
  14.7576310  64.9735940  30.9656800  14.7145940  64.6028850  31.8471260
  14.8887320  65.9113510  31.1058620  18.4582340  66.5295530  26.5666520
  18.2173700  66.7970090  25.6797040  19.3984980  66.7001260  26.6217380
  20.6636760  52.9928220  30.3223030  20.6025650  53.5850050  31.0718440
  21.6037140  52.8854180  30.1773290  29.7186500  68.5489910  27.3677160
  29.2244780  68.9458780  26.6504290  29.1099790  67.9239120  27.7614440
  13.8232580  51.3292540  30.0754380  14.3715570  51.1480590  29.3120490
  13.8887890  50.5386650  30.6110690  14.5964340  67.9198190  28.0854580
  14.0024660  67.7882890  28.8244620  14.5888180  67.0836330  27.6196680
  27.4025950  69.1913330  24.6463900  26.9428920  69.9429140  24.2721920
  26.7738410  68.4719800  24.5878700  14.2276570  65.2856570  27.0362620
  13.5010630  64.6661860  26.9688570  14.2885720  65.6797180  26.1660700
  17.8321670  67.5001570  23.8212030  18.3486690  66.8888930  23.2960290
  18.4819050  68.0030350  24.3123040  20.5717170  68.3910060  24.6481010
  20.8594980  68.1364360  23.7714020  21.0840390  67.8387420  25.2386580
  21.7894180  52.1300260  25.2277520  21.0065970  52.6045760  25.5074280
  21.4957110  51.2255090  25.1190700  12.5106570  68.6030960  20.2459380
  12.3428610  67.9701640  20.9441270  11.6441080  68.8090360  19.8953570
  13.1334590  52.4347740  17.7491240  13.8913950  52.5476620  17.1755270
  12.6711760  53.2716940  17.7034670  19.6748400  54.5487010  20.7393550
  18.8622910  54.1743900  20.3989430  20.1790040  53.7932090  21.0414740
  14.1169270  67.2964190  17.6909520  13.5916890  67.6772220  16.9871480
  14.0413850  67.9214960  18.4119230  15.5059740  52.9611790  16.2893210
  16.0352500  52.1741590  16.1601160  16.1388060  53.6402980  16.5228740
  17.6997580  52.6986930  19.3438600  17.0700320  51.9974240  19.5108730
  17.1602720  53.4591060  19.1271760  20.6389530  69.3126160  32.0149210
  21.5656840  69.0770430  32.0585170  20.6239960  70.1398160  31.5335240
  28.8734590  68.8551730  19.0123460  29.0486780  68.1689470  18.3684380
  28.1756160  69.3798780  18.6200130  17.8253140  51.9770910  31.7791090
  17.5437410  52.4804510  31.0151910  18.2072840  51.1792660  31.4133220
  16.7162240  69.2446570  16.5658770  17.4481060  68.9605850  16.0182660
  16.9755910  69.0059850  17.4558150  15.8777030  65.3611300  16.5705100
  15.2485910  65.8296400  17.1190930  15.9924860  64.5160520  17.0051290
  24.4268600  51.3924490  32.3571560  24.3134050  51.7119100  33.2523080
  25.2438340  51.7937000  32.0608840  27.2067090  68.5396020  31.8390250
  27.9992410  68.0445250  31.6316210  27.5000240  69.2186160  32.4465860
  23.3326750  59.4116960   2.7206300  23.2520800  58.4971570   2.4498010
  22.9191170  59.9084030   2.0146010  21.4644790  61.1895980   4.6015570
  20.6886890  60.7096420   4.8914140  22.1157720  60.5101630   4.4271730
  15.4810620  61.5015790   5.4791330  14.6495500  61.2464500   5.8787840
  16.0891600  61.5726560   6.2149250  25.4852220  65.5956170   3.3814700
  25.0233750  64.8243410   3.7101870  26.2977770  65.6222240   3.8867150
  15.4611880  65.5355880   5.6749350  15.7639920  64.6453620   5.4959570
  16.2055470  66.0926100   5.4471600  11.8535580  59.0623330   5.1473420
  12.4251690  58.2945530   5.1477060  11.8537120  59.3612090   4.2380030
  21.7115530  67.8814180   3.0018690  21.0926970  68.3371680   2.4313130
  22.5667310  68.0365640   2.6008390  20.9053780  63.8653170   4.6085730
  20.8362060  62.9243110   4.4474860  21.6673640  63.9554580   5.1808300
  13.0960450  54.4707690   6.9342350  12.9163290  53.5733440   7.2145110
  12.6940530  55.0179560   7.6089300  21.9358950  56.6723550   4.8354660
  22.3123770  55.7995430   4.7228330  21.8378460  57.0082250   3.9445100
  25.7183070  54.1673990   1.7683000  26.5392690  53.6770560   1.8108480
  25.7517150  54.7571650   2.5214840  13.7147120  56.9668190   5.5424690
  14.3957230  57.2306560   6.1612090  13.3995170  56.1269060   5.8762700
  17.9071690  58.0135550   4.6297280  18.4149910  58.5116520   5.2702300
  18.4384930  57.2370750   4.4536640  30.0082620  56.1840740   8.3326630
  29.3034790  56.5722450   7.8141740  30.2740540  56.8791030   8.9347560
  16.1907790  52.6534110   8.8960700  16.1926230  53.1706500   8.0906600
  15.3612100  52.1764290   8.8730630  17.4410640  62.2929290   7.0734200
  17.1080020  62.9198210   7.7155270  17.6177320  62.8191170   6.2935870
  25.9544550  56.1074370   4.5410540  25.2500120  56.3959260   5.1213650
  26.3156710  56.9174480   4.1810100  15.8723120  54.3644070   6.9031150
  16.2139930  55.2086120   6.6085020  14.9338930  54.5127810   7.0196490
  16.6529740  64.2610090   8.8883380  17.2703740  64.9361170   8.6067830
  15.7922860  64.6698070   8.7970880  27.5707330  65.7249500   6.8038020
  26.8870850  66.3948610   6.7954690  28.1101620  65.9230150   6.0382880
  29.0231470  55.5529160   4.9319750  28.0756380  55.5868140   5.0635180
  29.3481460  56.3668110   5.3169110  19.5551010  51.8526340   3.2275740
  19.8625990  51.2973230   2.5111240  18.6251710  51.9870800   3.0448730
  25.1066070  67.5693630   5.5183200  25.1193230  67.1655920   4.6505460
  24.5541290  68.3440920   5.4144630  24.5051510  62.4723470   6.8465810
  24.9220300  62.2583580   6.0119270  25.2291330  62.7296260   7.4174430
  28.4513610  60.8710690   6.9382050  27.6232240  60.9403780   6.4632180
  29.0464090  61.4565000   6.4697880  25.4155620  57.6580010   7.8836920
  25.0026800  58.4833720   8.1376910  24.6831570  57.0725050   7.6913280
  17.5488410  60.4439910   2.7455590  17.1445410  59.7317160   2.2501490
  17.6351530  60.0993150   3.6343630  18.0170110  64.1307470   4.9094800
  17.7198400  63.5252940   4.2302580  18.9669930  64.1684780   4.7984160
  16.2617030  57.2183120   6.5254630  16.8131620  57.3278460   5.7507880
  16.7760540  57.5920720   7.2409860  26.1055720  67.7039340   8.5717900
  25.6286280  68.5111530   8.3790510  25.4217510  67.0517670   8.7244110
  17.1088540  63.8689160  11.5602600  16.2117070  64.0929130  11.8076000
  17.1341410  63.9924100  10.6114000  15.9359760  60.7402480  10.1359970
  15.7967530  61.6125280  10.5047370  15.0541120  60.3975290   9.9907910
  17.7340110  66.6824180  12.3445120  17.7055540  67.0867130  11.4773550
  17.5705080  65.7534540  12.1816720  29.6854930  67.4651280  13.6409290
  30.1614650  67.9434170  14.3198370  30.3062090  67.3968770  12.9154790
  11.8878410  62.5100030   6.0530880  11.9658830  62.6448800   5.1086600
  12.5020090  61.8015920   6.2459000  29.0888180  64.6564130  10.8009300
  29.2151240  64.4176010   9.8826480  29.1309560  63.8248670  11.2731380
  22.9504920  68.3592130   9.3704110  23.4649590  68.2700140  10.1726540
  22.1074000  68.7051830   9.6632020  28.9412190  56.7096590  11.7659040
  28.3256460  57.2176260  11.2374500  28.6208610  55.8094920  11.7084980
  11.9437930  63.5514200   8.5925340  12.1068970  63.0819560   7.7744710
  12.4090380  63.0437760   9.2574180  16.7156700  52.6819960   3.6285910
  16.2724850  53.4629500   3.2970430  17.2741690  53.0049850   4.3356850
  21.0026510  55.5488480   9.2321230  20.5405880  55.7571500  10.0441170
  20.6004620  54.7347830   8.9291900  26.0031020  56.7697430  10.3617890
  25.1524610  56.4703180  10.6826960  25.8432810  57.0139440   9.4501710
  23.0980730  58.2699180  12.4616680  23.4234140  57.4362930  12.1218910
  23.8861060  58.7927700  12.6095010  18.7532600  53.2267290   5.4875510
  19.0504930  54.1330120   5.4067530  19.3018160  52.7386070   4.8735080
  18.9470130  58.7039110  12.0227430  18.8513730  57.7633840  11.8727830
  19.7902110  58.9254180  11.6275500  14.0780670  55.1152780  10.1761210
  13.6844060  55.9627990  10.3833990  13.3899070  54.4779150  10.3669850
  20.6525720  55.1987750  13.2457950  19.9624040  55.0059950  13.8804040
  21.3958020  55.4822390  13.7782250  11.3797720  53.0381240   4.2091290
  11.0910770  53.6084100   4.9216270  12.1243480  52.5585690   4.5722520
  22.9288690  59.0386190   6.0811870  22.1969810  59.5473000   6.4301970
  22.5313030  58.2216170   5.7800650  19.3666080  55.7140390   4.4864360
  19.3702140  55.2730340   3.6368900  20.2617200  56.0357720   4.5936180
  15.2168460  55.5966880   3.4458570  14.8768510  56.0742110   4.2025620
  14.4545780  55.1432000   3.0859670  23.3914600  54.4919870   5.4934810
  23.4087340  54.9428520   6.3376660  23.1430180  53.5925510   5.7068250
  26.8185350  51.9052050  11.3321190  27.1431120  51.1741710  11.8579170
  26.8541860  51.5865690  10.4302180  13.5176910  62.9265630  10.7521150
  13.1331700  62.2859300  11.3504110  13.8289100  63.6301750  11.3215880
  19.6674050  59.7742170   6.2329770  20.0344180  59.3000740   6.9791110
  19.4779110  60.6483740   6.5738110  12.5314540  54.5185860   2.3623240
  12.2461460  54.1541530   3.2001860  12.4693400  53.7866320   1.7486380
  17.4573420  58.8150810   8.5513980  17.1530490  59.6942790   8.7764340
  18.4119880  58.8750600   8.5871420  26.7443190  62.0177160   4.9407220
  27.4642310  62.5132450   4.5503330  26.5425010  61.3395050   4.2961090
  22.1261990  62.0886220  10.8276220  22.0599300  61.1681890  10.5733810
  21.4967130  62.1861660  11.5420860  16.0292610  62.6892180   2.7859640
  16.5471280  61.8860440   2.7316530  15.5776630  62.6271320   3.6276470
  13.5137150  59.6553550   9.6985340  13.1552090  60.3207400  10.2858680
  13.2191710  58.8237100  10.0697960  16.7150270  60.1137790  12.5824890
  16.4150410  60.2594970  11.6852710  17.4861510  59.5543080  12.4898280
  22.0578720  64.9106790  10.5780020  22.0723260  63.9787750  10.3598930
  21.3503820  64.9966550  11.2169790  28.2689930  61.5514130   9.9248600
  27.5438120  62.1442910   9.7277990  28.7965390  61.5437670   9.1261970
  23.7989520  63.2774300   3.4232450  24.1513340  62.6802430   2.7633820
  22.9151850  62.9518530   3.5940700  21.4912620  66.5524360   7.6720520
  22.1354840  66.7583740   8.3493940  21.8542060  65.7912760   7.2191370
  22.7644700  64.5556710   6.3897970  23.4066930  63.8549870   6.5030140
  23.2894050  65.3355150   6.2094860  24.5382320  65.3551610   9.5934030
  24.8738560  65.9418300  10.2711950  23.6182660  65.2244320   9.8231820
  12.0885720  53.1446790  10.3757440  11.3744240  53.3443710  10.9810050
  12.5080760  52.3686360  10.7472240  12.3758310  67.1327050  11.3623970
  12.4849430  66.1921790  11.2219360  11.7238870  67.3981800  10.7137700
  20.3670900  65.4042940  12.7622090  20.0467770  64.6852180  13.3067780
  19.6929260  66.0798010  12.8358150  23.5824500  55.6369100   8.1258890
  23.9505320  54.8164310   8.4538460  22.7222700  55.6970990   8.5414540
  20.5426490  58.2908690   8.3496860  21.0411740  58.7654510   9.0148710
  20.6849440  57.3672210   8.5566890  27.7493350  54.5076650   9.1925250
  27.2466950  55.2482050   9.5319060  28.5650010  54.8960650   8.8762040
  26.0415360  59.7509830   2.6386610  25.1005500  59.7660060   2.8134300
  26.3559430  58.9645790   3.0846910  28.0440940  66.9218680   4.3140870
  28.1688360  67.7449850   4.7864680  28.9106500  66.7109410   3.9665020
  15.5158470  69.0149890   3.9858000  16.2520950  68.4665350   4.2566570
  15.8999390  69.8805900   3.8463990  14.5216750  68.1995960  13.1743580
  15.3229480  68.5208010  13.5878980  14.0068570  67.8391540  13.8963490
  23.3581380  64.3075830  13.1218990  22.7519540  64.3307430  12.3814740
  23.0535490  63.5758870  13.6586240  24.7881750  68.0356120  11.7328400
  25.7403500  67.9514140  11.6828640  24.6409970  68.6997830  12.4062190
  12.2414560  60.6869420  12.1179630  12.7453580  60.1076700  12.6895860
  11.5021980  60.9709650  12.6556000  19.2952500  62.0940410  11.6515150
  18.5298170  62.6625410  11.5669820  19.4768460  61.8016620  10.7583380
  26.4375850  63.8245740  12.2090170  27.1785320  64.1621500  11.7057630
  25.6748530  63.9937800  11.6559940  14.2737640  58.8299010  13.0129700
  14.3142980  58.5312880  13.9214930  15.1283140  59.2306620  12.8537220
  16.2143450  57.4091110  10.9804190  15.6839910  56.9182060  10.3527530
  16.8831520  57.8375310  10.4462120  25.1121510  61.8760570  10.7445380
  25.5262530  62.0305650  11.5935800  24.1772510  62.0015790  10.9071160
  25.5843680  59.2156730  12.7484530  26.1664450  58.4609050  12.6605010
  25.7605450  59.7464170  11.9716010  16.7015750  54.3753480  11.0601480
  16.6072620  53.7574230  10.3352350  16.1213140  55.1019770  10.8331390
  19.4677190  52.9326720   8.0928870  19.0194490  52.9550980   7.2474420
  18.8342390  52.5345740   8.6899170  19.8736740  61.8281050   8.7141310
  20.2924850  62.6713780   8.5417550  18.9545370  61.9653090   8.4848090
  22.2100640  59.5597230  10.0979150  22.3296850  58.9638370  10.8373990
  23.0694640  59.5966920   9.6780450  24.5488540  60.1134420   8.6741660
  24.0223760  60.6377040   8.0706800  24.8919880  60.7461810   9.3051390
  17.7244160  68.1334060   9.8299040  17.1865250  68.8580120   9.5107740
  17.9778120  67.6564400   9.0396380  18.9769410  56.1018580  11.3554970
  19.5669100  55.7934430  12.0432790  18.1589650  55.6298330  11.5114870
  23.7962840  55.7184390  11.5887990  23.1078360  55.0565930  11.5237980
  24.5168860  55.2722660  12.0336450  20.5806370  69.3685270  10.0885690
  20.5065070  70.2720410  10.3958060  19.6785210  69.0497170  10.0607760
  11.9833660  66.6959860   3.3919310  12.3136670  65.8280920   3.1597950
  12.4124660  66.9018380   4.2224270  12.4723870  67.5630450   6.1300940
  12.0354860  67.7431250   6.9625090  13.0401550  68.3205070   5.9882660
  28.1086050  67.0647450  10.4178250  27.5088040  67.1240010   9.6742170
  28.2379950  66.1252430  10.5475100  12.3048300  60.0750680   2.4889820
  11.6497140  59.8062320   1.8449520  13.1426250  59.9655160   2.0391800
  29.8103930  62.4062850   3.1024090  30.1812760  61.6230170   2.6960060
  30.4505860  63.0951950   2.9241390  26.7937690  63.7899430   8.5154410
  25.9797530  64.2196590   8.7780200  27.2011890  64.4017840   7.9023460
  13.3424230  60.4603250   7.0293160  13.7097270  60.3730650   7.9089180
  12.7735050  59.6969800   6.9300020  28.1428090  58.9287630  10.0423630
  27.9114180  58.7000380   9.1421580  28.4032640  59.8487180   9.9968520
  12.8940230  57.3712340  10.9351580  11.9996280  57.3379100  11.2745290
  13.4337780  57.5699130  11.7002830  26.5816160  54.1544060  12.8203330
  27.4586340  54.1627460  13.2037330  26.5937000  53.4174900  12.2095680
  28.0279430  58.0073600   3.7091350  28.5516910  57.5136250   3.0781520
  28.6138850  58.1423960   4.4538920  28.2069150  58.0913470   7.2310900
  27.2571860  58.0577010   7.3455890  28.3882160  59.0013580   6.9960670
  13.3979940  51.6460670   5.2834800  14.0456130  51.0958050   4.8429960
  13.8181780  51.9003820   6.1050610  28.9466560  55.9007900   2.1821440
  28.8365840  55.7463940   3.1203710  29.7074150  55.3728840   1.9396850
  27.2932280  51.8402030   8.6404440  27.9304500  52.4536170   9.0063630
  27.4407170  51.8762690   7.6953670  13.1511940  51.8016340   8.0260120
  12.8026760  52.2580160   8.7918300  12.8199640  50.9073470   8.1082550
  14.7576310  64.9735940  12.1913310  14.7145940  64.6028850  13.0727770
  14.8887320  65.9113510  12.3315130  18.4582340  66.5295530   7.7923030
  18.2173700  66.7970090   6.9053550  19.3984980  66.7001260   7.8473890
  20.6636760  52.9928220  11.5479540  20.6025650  53.5850050  12.2974950
  21.6037140  52.8854180  11.4029800  23.3011320  52.6498280  11.1871830
  23.9151730  52.9677570  10.5252910  23.8460880  52.1646870  11.8067690
  29.7186500  68.5489910   8.5933670  29.2244780  68.9458780   7.8760800
  29.1099790  67.9239120   8.9870950  13.8232580  51.3292540  11.3010890
  14.3715570  51.1480590  10.5377000  13.8887890  50.5386650  11.8367200
  14.5964340  67.9198190   9.3111090  14.0024660  67.7882890  10.0501130
  14.5888180  67.0836330   8.8453190  24.0419360  51.2130420   7.5141120
  23.1679200  51.5465530   7.3114050  23.9330110  50.7403600   8.3392990
  24.9491340  53.4201290   8.8982840  24.6204700  52.6053050   8.5184570
  25.8973640  53.3771100   8.7748530  27.4025950  69.1913330   5.8720410
  26.9428920  69.9429140   5.4978430  26.7738410  68.4719800   5.8135210
  14.2276570  65.2856570   8.2619130  13.5010630  64.6661860   8.1945080
  14.2885720  65.6797180   7.3917210  17.8321670  67.5001570   5.0468540
  18.3486690  66.8888930   4.5216800  18.4819050  68.0030350   5.5379550
  20.5717170  68.3910060   5.8737520  20.8594980  68.1364360   4.9970530
  21.0840390  67.8387420   6.4643090  21.7894180  52.1300260   6.4534030
  21.0065970  52.6045760   6.7330790  21.4957110  51.2255090   6.3447210
  26.3415250  52.8323360   4.4983120  26.7823340  52.7768460   3.6504720
  26.0722840  53.7481370   4.5693300  28.2053820  52.4638600   2.5091940
  28.1442220  51.5199820   2.3622960  28.9845850  52.5718690   3.0545400
  24.1773380  51.2129460   3.2033130  24.7802750  51.7849670   3.6781650
  23.4366370  51.7768900   2.9807030  20.6389530  69.3126160  13.2405720
  21.5656840  69.0770430  13.2841680  20.6239960  70.1398160  12.7591750
  17.8253140  51.9770910  13.0047600  17.5437410  52.4804510  12.2408420
  18.2072840  51.1792660  12.6389730  24.4268600  51.3924490  13.5828070
  24.3134050  51.7119100  14.4779590  25.2438340  51.7937000  13.2865350
  27.2067090  68.5396020  13.0646760  27.9992410  68.0445250  12.8572720
  27.5000240  69.2186160  13.6722370  23.3326750  40.6373470  77.8180260
  23.2520800  39.7228080  77.5471970  22.9191170  41.1340540  77.1119970
  21.4644790  42.4152490  79.6989530  20.6886890  41.9352930  79.9888100
  22.1157720  41.7358140  79.5245690  15.4810620  42.7272300  80.5765290
  14.6495500  42.4721010  80.9761800  16.0891600  42.7983070  81.3123210
  25.4852220  46.8212680  78.4788660  25.0233750  46.0499920  78.8075830
  26.2977770  46.8478750  78.9841110  15.4611880  46.7612390  80.7723310
  15.7639920  45.8710130  80.5933530  16.2055470  47.3182610  80.5445560
  13.8902570  37.6874190  74.3607680  13.0019270  38.0290160  74.2587560
  14.1743760  37.4874510  73.4688510  11.8535580  40.2879840  80.2447380
  12.4251690  39.5202040  80.2451020  11.8537120  40.5868600  79.3353990
  21.7115530  49.1070690  78.0992650  21.0926970  49.5628190  77.5287090
  22.5667310  49.2622150  77.6982350  20.9053780  45.0909680  79.7059690
  20.8362060  44.1499620  79.5448820  21.6673640  45.1811090  80.2782260
  21.9358950  37.8980060  79.9328620  22.3123770  37.0251940  79.8202290
  21.8378460  38.2338760  79.0419060  16.0663960  36.2705690  75.3946060
  16.1730710  37.1709420  75.7014820  15.1556320  36.2223660  75.1040710
  25.7183070  35.3930500  76.8656960  26.5392690  34.9027070  76.9082440
  25.7517150  35.9828160  77.6188800  13.7147120  38.1924700  80.6398650
  14.3957230  38.4563070  81.2586050  13.3995170  37.3525570  80.9736660
  17.9071690  39.2392060  79.7271240  18.4149910  39.7373030  80.3676260
  18.4384930  38.4627260  79.5510600  22.5778880  43.9909930  75.4924560
  21.9596150  44.4559380  74.9287280  23.0902130  44.6837410  75.9094070
  25.9544550  37.3330880  79.6384500  25.2500120  37.6215770  80.2187610
  26.3156710  38.1430990  79.2784060  11.9462080  44.6766460  72.8664190
  11.5690060  45.1653560  72.1349090  12.2035150  45.3491740  73.4970720
  27.5707330  46.9506010  81.9011980  26.8870850  47.6205120  81.8928650
  28.1101620  47.1486660  81.1356840  29.0231470  36.7785670  80.0293710
  28.0756380  36.8124650  80.1609140  29.3481460  37.5924620  80.4143070
  19.5551010  33.0782850  78.3249700  19.8625990  32.5229740  77.6085200
  18.6251710  33.2127310  78.1422690  25.1066070  48.7950140  80.6157160
  25.1193230  48.3912430  79.7479420  24.5541290  49.5697430  80.5118590
  26.4011490  45.5166360  75.7047330  26.2907820  44.5740690  75.8296750
  26.3979740  45.8782000  76.5910090  21.9431770  41.1431680  75.0609820
  21.0161050  41.0769060  75.2898290  22.0956590  42.0811810  74.9465060
  21.9300850  37.4148680  72.0576980  20.9904520  37.5762640  72.1429440
  22.2484110  38.1334360  71.5112970  28.4513610  42.0967200  82.0356010
  27.6232240  42.1660290  81.5606140  29.0464090  42.6821510  81.5671840
  25.9729060  42.7051980  75.5645070  25.3541480  42.3671530  74.9171370
  25.9553510  42.0611740  76.2724260  17.5488410  41.6696420  77.8429550
  17.1445410  40.9573670  77.3475450  17.6351530  41.3249660  78.7317590
  18.0170110  45.3563980  80.0068760  17.7198400  44.7509450  79.3276540
  18.9669930  45.3941290  79.8958120  24.1493760  41.9438790  72.5717820
  24.5887040  41.1061220  72.4255640  24.8622180  42.5768190  72.6581960
  22.2589140  46.8834860  76.5399060  22.6985050  47.6259190  76.1254450
  22.1976030  47.1261430  77.4638020  27.7310900  33.1981600  70.8858860
  27.4183560  33.2908430  71.7857930  28.4923370  33.7762630  70.8356290
  14.2493040  40.5641400  75.3436200  14.1290640  41.2903490  74.7317470
  13.9393930  39.7944310  74.8664110  11.8878410  43.7356540  81.1504840
  11.9658830  43.8705310  80.2060560  12.5020090  43.0272430  81.3432960
  13.1326040  45.4356730  77.5611020  12.7254120  45.5771320  76.7064620
  14.0239050  45.1516890  77.3582230  24.9259320  49.8703980  73.8962070
  24.7660460  49.5806920  74.7943900  24.7606030  49.0944110  73.3607300
  17.4047700  49.6502510  75.6733690  17.2290180  48.7338050  75.4601490
  16.5503440  50.0089800  75.9131490  24.6285450  47.3791540  72.4560070
  23.9350610  47.3768830  71.7962350  25.3708310  46.9550860  72.0254240
  24.1935380  49.0054250  76.5308560  24.6492330  48.2243630  76.8447180
  24.5327900  49.7161070  77.0749740  16.7156700  33.9076470  78.7259870
  16.2724850  34.6886010  78.3944390  17.2741690  34.2306360  79.4330810
  19.8315520  33.5287170  73.6065700  19.2069700  33.5247040  74.3319010
  19.7445640  32.6618130  73.2101670  18.7532600  34.4523800  80.5849470
  19.0504930  35.3586630  80.5041490  19.3018160  33.9642580  79.9709040
  16.5070920  39.0310040  76.4541120  16.2811840  38.8147210  77.3587740
  15.7263450  39.4638500  76.1087090  23.7368680  39.0373410  75.0531770
  23.1377570  39.7609210  74.8695390  24.2848290  38.9750190  74.2708220
  22.3433550  37.6736950  77.0835050  22.7363120  37.9909150  76.2703740
  22.7050400  36.7948830  77.1979570  11.3797720  34.2637750  79.3065250
  11.0910770  34.8340610  80.0190230  12.1243480  33.7842200  79.6696480
  11.5667950  38.2057870  70.5167970  11.4842620  39.1488630  70.6582960
  11.2151010  38.0632780  69.6380320  22.9288690  40.2642700  81.1785830
  22.1969810  40.7729510  81.5275930  22.5313030  39.4472680  80.8774610
  19.3666080  36.9396900  79.5838320  19.3702140  36.4986850  78.7342860
  20.2617200  37.2614230  79.6910140  15.2168460  36.8223390  78.5432530
  14.8768510  37.2998620  79.2999580  14.4545780  36.3688510  78.1833630
  19.4286230  37.9408980  72.5745080  19.5499050  37.8995460  73.5230900
  19.0434740  38.8033130  72.4191810  23.3914600  35.7176380  80.5908770
  23.4087340  36.1685030  81.4350620  23.1430180  34.8182020  80.8042210
  18.4407730  40.2510120  71.9728380  17.8724630  39.8028370  71.3464290
  19.1496730  40.6102900  71.4393530  12.5314540  35.7442370  77.4597200
  12.2461460  35.3798040  78.2975820  12.4693400  35.0122830  76.8460340
  15.9855210  44.2468310  74.2454790  15.2117470  43.7065930  74.0853510
  16.7149840  43.7274920  73.9072550  26.7443190  43.2433670  80.0381180
  27.4642310  43.7388960  79.6477290  26.5425010  42.5651560  79.3935050
  22.2053130  34.6371630  74.1810570  21.3917740  34.1384800  74.1055880
  22.0115080  35.4769880  73.7646920  24.9201520  39.0091280  72.4772730
  25.8081140  39.3208510  72.3024070  24.8906610  38.1363530  72.0853310
  16.0292610  43.9148690  77.8833600  16.5471280  43.1116950  77.8290490
  15.5776630  43.8527830  78.7250430  20.9162110  45.1814970  73.1560900
  21.2577810  45.9257200  72.6604220  20.0874820  45.4946090  73.5185730
  27.1915790  40.3203120  71.9452590  27.1079510  40.7517340  71.0949030
  27.9109980  40.7801470  72.3779410  28.2203040  47.1745380  74.6734720
  27.5779200  46.5201000  74.9478440  27.8333700  47.5800470  73.8975390
  23.7989520  44.5030810  78.5206410  24.1513340  43.9058940  77.8607780
  22.9151850  44.1775040  78.6914660  19.8852800  45.2628500  75.9276820
  20.5723930  45.8097710  76.3084410  19.0985220  45.8069230  75.9626430
  12.0245200  40.8801320  71.4193900  12.8940050  41.1626120  71.7029820
  11.5335520  41.6937190  71.3042710  19.1880010  42.2674530  75.5402180
  19.6442790  43.0779780  75.7662370  18.8368220  41.9497670  76.3720670
  15.0891790  32.6112180  76.0124700  14.9606420  32.6030080  76.9609620
  14.2653810  32.9495270  75.6615710  22.7644700  45.7813220  81.4871930
  23.4066930  45.0806380  81.6004100  23.2894050  46.5611660  81.3068820
  26.6100420  46.0661840  71.2111070  26.3838000  45.3492280  71.8035710
  26.2196620  45.8174280  70.3732820  12.3916450  50.0928700  71.9855530
  12.7514090  50.6918040  71.3312800  12.2508790  50.6388590  72.7590560
  26.1916670  43.9833780  72.8725230  25.9038370  44.4446470  73.6603110
  26.9868840  43.5231550  73.1409450  18.4085070  47.4759900  72.8029200
  18.3995170  48.2089590  72.1873710  17.4883430  47.2291480  72.8956160
  14.0091710  42.6974790  73.5475960  13.4019660  43.4373690  73.5571260
  14.4841060  42.7874150  72.7214160  26.9486530  35.8182550  74.0320410
  26.3199690  35.9228220  73.3178640  26.4538450  36.0379330  74.8214290
  21.3944670  47.5388140  71.4654390  21.4956650  47.3352130  70.5356370
  20.4946410  47.2846420  71.6702170  18.9170560  38.0968500  75.4478290
  18.2086710  38.5654840  75.8891900  19.2015040  37.4390510  76.0823480
  22.9485990  34.8219160  76.8874080  22.8253770  34.8405290  75.9383590
  23.8970550  34.8698100  77.0072480  20.0362780  50.0574460  76.1602060
  20.2904280  50.0195850  75.2381430  19.0875260  49.9307790  76.1530310
  17.1205580  36.4053580  72.8229000  17.9696110  36.8423730  72.7569190
  16.7536850  36.7173840  73.6501060  26.0415360  40.9766340  77.7360570
  25.1005500  40.9916570  77.9108260  26.3559430  40.1902300  78.1820870
  16.0197000  42.6585940  71.2964530  16.7860270  42.5467300  71.8589960
  16.0971690  41.9623910  70.6441300  14.7143760  40.0911010  71.9797420
  14.7947350  39.1438520  72.0914820  15.6063510  40.4217890  72.0858080
  28.0440940  48.1475190  79.4114830  28.1688360  48.9706360  79.8838640
  28.9106500  47.9365920  79.0638980  15.5158470  50.2406400  79.0831960
  16.2520950  49.6921860  79.3540530  15.8999390  51.1062410  78.9437950
  12.4003950  46.3079970  74.9573470  11.4743730  46.5501110  74.9478880
  12.8660380  47.1354230  74.8358220  18.6260780  49.4136710  70.9057530
  19.4189390  49.7025540  70.4539320  18.1065130  48.9828880  70.2270010
  27.6790950  48.6406840  72.3294270  27.3932460  48.2271980  71.5148450
  27.4810500  49.5694550  72.2094790  19.1438180  44.6340120  70.7699880
  19.0388820  44.0192470  71.4961260  18.9762400  44.1106010  69.9862890
  22.3840910  43.6960150  71.3741870  21.8351010  44.1429450  72.0184610
  23.0060170  43.1909400  71.8979540  18.0516030  42.6551070  73.2707170
  18.4732450  42.4890940  74.1138560  18.1766870  41.8451300  72.7762310
  20.5643670  41.6788680  70.5184270  21.0849330  40.9637700  70.1525420
  21.2112070  42.3174550  70.8184780  16.9474930  38.7284300  70.2165330
  16.7463990  37.8651660  70.5778670  16.7766980  38.6417660  69.2786930
  24.4263240  33.5392530  72.7452210  24.7065530  32.6960430  73.1011630
  23.6528970  33.7715640  73.2590960  15.7457730  35.8284920  70.2043210
  16.0483630  35.8352350  69.2962360  16.4852320  35.4782780  70.7010870
  18.9642660  34.7719540  71.1899410  18.6164660  34.0943530  70.6101860
  19.1655430  34.3109050  72.0042800  21.1291700  49.7600290  72.8086010
  22.0242490  50.0985260  72.8304770  21.1609330  49.0379700  72.1810290
  14.7687860  45.1327340  71.0373010  15.2062730  45.6757010  71.6930590
  15.2535590  44.3074290  71.0469350  11.9833660  47.9216370  78.4893270
  12.3136670  47.0537430  78.2571910  12.4124660  48.1274890  79.3198230
  16.5795580  46.2525380  76.1495240  16.2791120  46.1290350  77.0499150
  16.4733070  45.3933970  75.7410970  29.3487500  46.0321780  70.8521920
  28.5180460  46.0998430  71.3229150  29.5259330  46.9225900  70.5488780
  28.8043960  42.7769260  73.3556120  29.5662870  43.3465910  73.4615810
  28.8198330  42.2096460  74.1264430  12.3048300  41.3007190  77.5863780
  11.6497140  41.0318830  76.9423480  13.1426250  41.1911670  77.1365760
  29.8103930  43.6319360  78.1998050  30.1812760  42.8486680  77.7934020
  30.4505860  44.3208460  78.0215350  28.8563130  43.0703630  70.5128640
  29.1311970  43.9782510  70.3847860  28.6673870  43.0066160  71.4490630
  25.2538740  36.0948480  71.8082270  25.6723620  35.9079460  70.9678930
  24.9474800  35.2427530  72.1185200  28.7528470  41.0072620  75.5058070
  28.3772070  40.2400550  75.0739360  28.0231590  41.3895320  75.9933000
  11.5186380  38.5106120  73.5289110  10.6150460  38.7736320  73.3540770
  12.0027000  38.7817290  72.7489070  28.0279430  39.2330110  78.8065310
  28.5516910  38.7392760  78.1755480  28.6138850  39.3680470  79.5512880
  14.0613590  37.5671660  71.4383490  14.7705290  37.1454880  70.9530770
  13.3453530  37.6346890  70.8066840  13.7087750  33.6210990  70.4786140
  14.4315880  34.1619930  70.7967360  13.9812270  33.3474410  69.6027680
  27.5179400  38.4903460  74.7457720  28.0138520  38.2574330  75.5306600
  27.3195470  37.6515300  74.3295360  13.3979940  32.8717180  80.3808760
  14.0456130  32.3214560  79.9403920  13.8181780  33.1260330  81.2024570
  28.9466560  37.1264410  77.2795400  28.8365840  36.9720450  78.2177670
  29.7074150  36.5985350  77.0370810  29.8356830  34.9572330  70.5201540
  30.7606140  34.8253510  70.3119830  29.8132620  35.0365150  71.4737990
  29.9095320  35.7282990  73.1458250  29.1146820  35.6628110  73.6751160
  30.1138600  36.6633630  73.1343600  26.8513740  49.7674540  77.1396640
  27.4472810  49.4459110  76.4631060  27.1091890  49.2946360  77.9309910
  27.4025950  50.4169840  80.9694370  26.9428920  51.1685650  80.5952390
  26.7738410  49.6976310  80.9109170  17.8321670  48.7258080  80.1442500
  18.3486690  48.1145440  79.6190760  18.4819050  49.2286860  80.6353510
  20.5717170  49.6166570  80.9711480  20.8594980  49.3620870  80.0944490
  21.0840390  49.0643930  81.5617050  21.7894180  33.3556770  81.5507990
  21.0065970  33.8302270  81.8304750  21.4957110  32.4511600  81.4421170
  26.3415250  34.0579870  79.5957080  26.7823340  34.0024970  78.7478680
  26.0722840  34.9737880  79.6667260  28.2053820  33.6895110  77.6065900
  28.1442220  32.7456330  77.4596920  28.9845850  33.7975200  78.1519360
  12.5106570  49.8287470  76.5689850  12.3428610  49.1958150  77.2671740
  11.6441080  50.0346870  76.2184040  13.1334590  33.6604250  74.0721710
  13.8913950  33.7733130  73.4985740  12.6711760  34.4973450  74.0265140
  19.6748400  35.7743520  77.0624020  18.8622910  35.4000410  76.7219900
  20.1790040  35.0188600  77.3645210  24.1773380  32.4385970  78.3007090
  24.7802750  33.0106180  78.7755610  23.4366370  33.0025410  78.0780990
  27.3207980  32.8407530  73.5747370  27.5158610  33.7390980  73.8414800
  26.5337850  32.6094610  74.0680320  14.1169270  48.5220700  74.0139990
  13.5916890  48.9028730  73.3101950  14.0413850  49.1471470  74.7349700
  15.5059740  34.1868300  72.6123680  16.0352500  33.3998100  72.4831630
  16.1388060  34.8659490  72.8459210  17.6997580  33.9243440  75.6669070
  17.0700320  33.2230750  75.8339200  17.1602720  34.6847570  75.4502230
  28.8734590  50.0808240  75.3353930  29.0486780  49.3945980  74.6914850
  28.1756160  50.6055290  74.9430600  16.7162240  50.4703080  72.8889240
  17.4481060  50.1862360  72.3413130  16.9755910  50.2316360  73.7788620
  15.8777030  46.5867810  72.8935570  15.2485910  47.0552910  73.4421400
  15.9924860  45.7417030  73.3281760  23.3326750  40.6373470  59.0436770
  23.2520800  39.7228080  58.7728480  22.9191170  41.1340540  58.3376480
  21.4644790  42.4152490  60.9246040  20.6886890  41.9352930  61.2144610
  22.1157720  41.7358140  60.7502200  15.4810620  42.7272300  61.8021800
  14.6495500  42.4721010  62.2018310  16.0891600  42.7983070  62.5379720
  25.4852220  46.8212680  59.7045170  25.0233750  46.0499920  60.0332340
  26.2977770  46.8478750  60.2097620  15.4611880  46.7612390  61.9979820
  15.7639920  45.8710130  61.8190040  16.2055470  47.3182610  61.7702070
  13.8902570  37.6874190  55.5864190  13.0019270  38.0290160  55.4844070
  14.1743760  37.4874510  54.6945020  11.8535580  40.2879840  61.4703890
  12.4251690  39.5202040  61.4707530  11.8537120  40.5868600  60.5610500
  21.7115530  49.1070690  59.3249160  21.0926970  49.5628190  58.7543600
  22.5667310  49.2622150  58.9238860  20.9053780  45.0909680  60.9316200
  20.8362060  44.1499620  60.7705330  21.6673640  45.1811090  61.5038770
  13.0960450  35.6964200  63.2572820  12.9163290  34.7989950  63.5375580
  12.6940530  36.2436070  63.9319770  21.9358950  37.8980060  61.1585130
  22.3123770  37.0251940  61.0458800  21.8378460  38.2338760  60.2675570
  16.0663960  36.2705690  56.6202570  16.1730710  37.1709420  56.9271330
  15.1556320  36.2223660  56.3297220  25.7183070  35.3930500  58.0913470
  26.5392690  34.9027070  58.1338950  25.7517150  35.9828160  58.8445310
  13.7147120  38.1924700  61.8655160  14.3957230  38.4563070  62.4842560
  13.3995170  37.3525570  62.1993170  17.9071690  39.2392060  60.9527750
  18.4149910  39.7373030  61.5932770  18.4384930  38.4627260  60.7767110
  30.0082620  37.4097250  64.6557100  29.3034790  37.7978960  64.1372210
  30.2740540  38.1047540  65.2578030  16.1907790  33.8790620  65.2191170
  16.1926230  34.3963010  64.4137070  15.3612100  33.4020800  65.1961100
  22.5778880  43.9909930  56.7181070  21.9596150  44.4559380  56.1543790
  23.0902130  44.6837410  57.1350580  17.4410640  43.5185800  63.3964670
  17.1080020  44.1454720  64.0385740  17.6177320  44.0447680  62.6166340
  25.9544550  37.3330880  60.8641010  25.2500120  37.6215770  61.4444120
  26.3156710  38.1430990  60.5040570  15.8723120  35.5900580  63.2261620
  16.2139930  36.4342630  62.9315490  14.9338930  35.7384320  63.3426960
  16.6529740  45.4866600  65.2113850  17.2703740  46.1617680  64.9298300
  15.7922860  45.8954580  65.1201350  11.9462080  44.6766460  54.0920700
  11.5690060  45.1653560  53.3605600  12.2035150  45.3491740  54.7227230
  27.5707330  46.9506010  63.1268490  26.8870850  47.6205120  63.1185160
  28.1101620  47.1486660  62.3613350  29.0231470  36.7785670  61.2550220
  28.0756380  36.8124650  61.3865650  29.3481460  37.5924620  61.6399580
  19.5551010  33.0782850  59.5506210  19.8625990  32.5229740  58.8341710
  18.6251710  33.2127310  59.3679200  25.1066070  48.7950140  61.8413670
  25.1193230  48.3912430  60.9735930  24.5541290  49.5697430  61.7375100
  26.4011490  45.5166360  56.9303840  26.2907820  44.5740690  57.0553260
  26.3979740  45.8782000  57.8166600  24.5051510  43.6979980  63.1696280
  24.9220300  43.4840090  62.3349740  25.2291330  43.9552770  63.7404900
  28.4513610  42.0967200  63.2612520  27.6232240  42.1660290  62.7862650
  29.0464090  42.6821510  62.7928350  25.9729060  42.7051980  56.7901580
  25.3541480  42.3671530  56.1427880  25.9553510  42.0611740  57.4980770
  25.4155620  38.8836520  64.2067390  25.0026800  39.7090230  64.4607380
  24.6831570  38.2981560  64.0143750  17.5488410  41.6696420  59.0686060
  17.1445410  40.9573670  58.5731960  17.6351530  41.3249660  59.9574100
  18.0170110  45.3563980  61.2325270  17.7198400  44.7509450  60.5533050
  18.9669930  45.3941290  61.1214630  16.2617030  38.4439630  62.8485100
  16.8131620  38.5534970  62.0738350  16.7760540  38.8177230  63.5640330
  26.1055720  48.9295850  64.8948370  25.6286280  49.7368040  64.7020980
  25.4217510  48.2774180  65.0474580  17.1088540  45.0945670  67.8833070
  16.2117070  45.3185640  68.1306470  17.1341410  45.2180610  66.9344470
  15.9359760  41.9658990  66.4590440  15.7967530  42.8381790  66.8277840
  15.0541120  41.6231800  66.3138380  22.2589140  46.8834860  57.7655570
  22.6985050  47.6259190  57.3510960  22.1976030  47.1261430  58.6894530
  17.7340110  47.9080690  68.6675590  17.7055540  48.3123640  67.8004020
  17.5705080  46.9791050  68.5047190  14.2493040  40.5641400  56.5692710
  14.1290640  41.2903490  55.9573980  13.9393930  39.7944310  56.0920620
  29.6854930  48.6907790  69.9639760  30.1614650  49.1690680  70.6428840
  30.3062090  48.6225280  69.2385260  11.8878410  43.7356540  62.3761350
  11.9658830  43.8705310  61.4317070  12.5020090  43.0272430  62.5689470
  13.1326040  45.4356730  58.7867530  12.7254120  45.5771320  57.9321130
  14.0239050  45.1516890  58.5838740  29.0888180  45.8820640  67.1239770
  29.2151240  45.6432520  66.2056950  29.1309560  45.0505180  67.5961850
  22.9504920  49.5848640  65.6934580  23.4649590  49.4956650  66.4957010
  22.1074000  49.9308340  65.9862490  24.9259320  49.8703980  55.1218580
  24.7660460  49.5806920  56.0200410  24.7606030  49.0944110  54.5863810
  17.4047700  49.6502510  56.8990200  17.2290180  48.7338050  56.6858000
  16.5503440  50.0089800  57.1388000  24.1935380  49.0054250  57.7565070
  24.6492330  48.2243630  58.0703690  24.5327900  49.7161070  58.3006250
  28.9412190  37.9353100  68.0889510  28.3256460  38.4432770  67.5604970
  28.6208610  37.0351430  68.0315450  11.9437930  44.7770710  64.9155810
  12.1068970  44.3076070  64.0975180  12.4090380  44.2694270  65.5804650
  16.7156700  33.9076470  59.9516380  16.2724850  34.6886010  59.6200900
  17.2741690  34.2306360  60.6587320  21.0026510  36.7744990  65.5551700
  20.5405880  36.9828010  66.3671640  20.6004620  35.9604340  65.2522370
  26.0031020  37.9953940  66.6848360  25.1524610  37.6959690  67.0057430
  25.8432810  38.2395950  65.7732180  23.0980730  39.4955690  68.7847150
  23.4234140  38.6619440  68.4449380  23.8861060  40.0184210  68.9325480
  19.8315520  33.5287170  54.8322210  19.2069700  33.5247040  55.5575520
  19.7445640  32.6618130  54.4358180  18.7532600  34.4523800  61.8105980
  19.0504930  35.3586630  61.7298000  19.3018160  33.9642580  61.1965550
  16.5070920  39.0310040  57.6797630  16.2811840  38.8147210  58.5844250
  15.7263450  39.4638500  57.3343600  18.9470130  39.9295620  68.3457900
  18.8513730  38.9890350  68.1958300  19.7902110  40.1510690  67.9505970
  22.3433550  37.6736950  58.3091560  22.7363120  37.9909150  57.4960250
  22.7050400  36.7948830  58.4236080  14.0780670  36.3409290  66.4991680
  13.6844060  37.1884500  66.7064460  13.3899070  35.7035660  66.6900320
  20.6525720  36.4244260  69.5688420  19.9624040  36.2316460  70.2034510
  21.3958020  36.7078900  70.1012720  11.3797720  34.2637750  60.5321760
  11.0910770  34.8340610  61.2446740  12.1243480  33.7842200  60.8952990
  11.5667950  38.2057870  51.7424480  11.4842620  39.1488630  51.8839470
  11.2151010  38.0632780  50.8636830  22.9288690  40.2642700  62.4042340
  22.1969810  40.7729510  62.7532440  22.5313030  39.4472680  62.1031120
  19.3666080  36.9396900  60.8094830  19.3702140  36.4986850  59.9599370
  20.2617200  37.2614230  60.9166650  15.2168460  36.8223390  59.7689040
  14.8768510  37.2998620  60.5256090  14.4545780  36.3688510  59.4090140
  23.3914600  35.7176380  61.8165280  23.4087340  36.1685030  62.6607130
  23.1430180  34.8182020  62.0298720  26.8185350  33.1308560  67.6551660
  27.1431120  32.3998220  68.1809640  26.8541860  32.8122200  66.7532650
  13.5176910  44.1522140  67.0751620  13.1331700  43.5115810  67.6734580
  13.8289100  44.8558260  67.6446350  19.6674050  40.9998680  62.5560240
  20.0344180  40.5257250  63.3021580  19.4779110  41.8740250  62.8968580
  12.5314540  35.7442370  58.6853710  12.2461460  35.3798040  59.5232330
  12.4693400  35.0122830  58.0716850  17.4573420  40.0407320  64.8744450
  17.1530490  40.9199300  65.0994810  18.4119880  40.1007110  64.9101890
  15.9855210  44.2468310  55.4711300  15.2117470  43.7065930  55.3110020
  16.7149840  43.7274920  55.1329060  26.7443190  43.2433670  61.2637690
  27.4642310  43.7388960  60.8733800  26.5425010  42.5651560  60.6191560
  22.1261990  43.3142730  67.1506690  22.0599300  42.3938400  66.8964280
  21.4967130  43.4118170  67.8651330  16.0292610  43.9148690  59.1090110
  16.5471280  43.1116950  59.0547000  15.5776630  43.8527830  59.9506940
  20.9162110  45.1814970  54.3817410  21.2577810  45.9257200  53.8860730
  20.0874820  45.4946090  54.7442240  13.5137150  40.8810060  66.0215810
  13.1552090  41.5463910  66.6089150  13.2191710  40.0493610  66.3928430
  16.7150270  41.3394300  68.9055360  16.4150410  41.4851480  68.0083180
  17.4861510  40.7799590  68.8128750  22.0578720  46.1363300  66.9010490
  22.0723260  45.2044260  66.6829400  21.3503820  46.2223060  67.5400260
  28.2689930  42.7770640  66.2479070  27.5438120  43.3699420  66.0508460
  28.7965390  42.7694180  65.4492440  23.7989520  44.5030810  59.7462920
  24.1513340  43.9058940  59.0864290  22.9151850  44.1775040  59.9171170
  19.8852800  45.2628500  57.1533330  20.5723930  45.8097710  57.5340920
  19.0985220  45.8069230  57.1882940  12.0245200  40.8801320  52.6450410
  12.8940050  41.1626120  52.9286330  11.5335520  41.6937190  52.5299220
  19.1880010  42.2674530  56.7658690  19.6442790  43.0779780  56.9918880
  18.8368220  41.9497670  57.5977180  21.4912620  47.7780870  63.9950990
  22.1354840  47.9840250  64.6724410  21.8542060  47.0169270  63.5421840
  15.0891790  32.6112180  57.2381210  14.9606420  32.6030080  58.1866130
  14.2653810  32.9495270  56.8872220  22.7644700  45.7813220  62.7128440
  23.4066930  45.0806380  62.8260610  23.2894050  46.5611660  62.5325330
  24.5382320  46.5808120  65.9164500  24.8738560  47.1674810  66.5942420
  23.6182660  46.4500830  66.1462290  12.3916450  50.0928700  53.2112040
  12.7514090  50.6918040  52.5569310  12.2508790  50.6388590  53.9847070
  12.0885720  34.3703300  66.6987910  11.3744240  34.5700220  67.3040520
  12.5080760  33.5942870  67.0702710  12.3758310  48.3583560  67.6854440
  12.4849430  47.4178300  67.5449830  11.7238870  48.6238310  67.0368170
  20.3670900  46.6299450  69.0852560  20.0467770  45.9108690  69.6298250
  19.6929260  47.3054520  69.1588620  18.4085070  47.4759900  54.0285710
  18.3995170  48.2089590  53.4130220  17.4883430  47.2291480  54.1212670
  14.0091710  42.6974790  54.7732470  13.4019660  43.4373690  54.7827770
  14.4841060  42.7874150  53.9470670  23.5824500  36.8625610  64.4489360
  23.9505320  36.0420820  64.7768930  22.7222700  36.9227500  64.8645010
  26.9486530  35.8182550  55.2576920  26.3199690  35.9228220  54.5435150
  26.4538450  36.0379330  56.0470800  21.3944670  47.5388140  52.6910900
  21.4956650  47.3352130  51.7612880  20.4946410  47.2846420  52.8958680
  18.9170560  38.0968500  56.6734800  18.2086710  38.5654840  57.1148410
  19.2015040  37.4390510  57.3079990  20.5426490  39.5165200  64.6727330
  21.0411740  39.9911020  65.3379180  20.6849440  38.5928720  64.8797360
  22.9485990  34.8219160  58.1130590  22.8253770  34.8405290  57.1640100
  23.8970550  34.8698100  58.2328990  20.0362780  50.0574460  57.3858570
  20.2904280  50.0195850  56.4637940  19.0875260  49.9307790  57.3786820
  17.1205580  36.4053580  54.0485510  17.9696110  36.8423730  53.9825700
  16.7536850  36.7173840  54.8757570  27.7493350  35.7333160  65.5155720
  27.2466950  36.4738560  65.8549530  28.5650010  36.1217160  65.1992510
  26.0415360  40.9766340  58.9617080  25.1005500  40.9916570  59.1364770
  26.3559430  40.1902300  59.4077380  16.0197000  42.6585940  52.5221040
  16.7860270  42.5467300  53.0846470  16.0971690  41.9623910  51.8697810
  14.7143760  40.0911010  53.2053930  14.7947350  39.1438520  53.3171330
  15.6063510  40.4217890  53.3114590  28.0440940  48.1475190  60.6371340
  28.1688360  48.9706360  61.1095150  28.9106500  47.9365920  60.2895490
  15.5158470  50.2406400  60.3088470  16.2520950  49.6921860  60.5797040
  15.8999390  51.1062410  60.1694460  12.4003950  46.3079970  56.1829980
  11.4743730  46.5501110  56.1735390  12.8660380  47.1354230  56.0614730
  14.5216750  49.4252470  69.4974050  15.3229480  49.7464520  69.9109450
  14.0068570  49.0648050  70.2193960  18.6260780  49.4136710  52.1314040
  19.4189390  49.7025540  51.6795830  18.1065130  48.9828880  51.4526520
  23.3581380  45.5332340  69.4449460  22.7519540  45.5563940  68.7045210
  23.0535490  44.8015380  69.9816710  24.7881750  49.2612630  68.0558870
  25.7403500  49.1770650  68.0059110  24.6409970  49.9254340  68.7292660
  12.2414560  41.9125930  68.4410100  12.7453580  41.3333210  69.0126330
  11.5021980  42.1966160  68.9786470  19.1438180  44.6340120  51.9956390
  19.0388820  44.0192470  52.7217770  18.9762400  44.1106010  51.2119400
  19.2952500  43.3196920  67.9745620  18.5298170  43.8881920  67.8900290
  19.4768460  43.0273130  67.0813850  26.4375850  45.0502250  68.5320640
  27.1785320  45.3878010  68.0288100  25.6748530  45.2194310  67.9790410
  14.2737640  40.0555520  69.3360170  14.3142980  39.7569390  70.2445400
  15.1283140  40.4563130  69.1767690  18.0516030  42.6551070  54.4963680
  18.4732450  42.4890940  55.3395070  18.1766870  41.8451300  54.0018820
  16.2143450  38.6347620  67.3034660  15.6839910  38.1438570  66.6758000
  16.8831520  39.0631820  66.7692590  25.1121510  43.1017080  67.0675850
  25.5262530  43.2562160  67.9166270  24.1772510  43.2272300  67.2301630
  25.5843680  40.4413240  69.0715000  26.1664450  39.6865560  68.9835480
  25.7605450  40.9720680  68.2946480  16.7015750  35.6009990  67.3831950
  16.6072620  34.9830740  66.6582820  16.1213140  36.3276280  67.1561860
  19.4677190  34.1583230  64.4159340  19.0194490  34.1807490  63.5704890
  18.8342390  33.7602250  65.0129640  19.8736740  43.0537560  65.0371780
  20.2924850  43.8970290  64.8648020  18.9545370  43.1909600  64.8078560
  22.2100640  40.7853740  66.4209620  22.3296850  40.1894880  67.1604460
  23.0694640  40.8223430  66.0010920  24.5488540  41.3390930  64.9972130
  24.0223760  41.8633550  64.3937270  24.8919880  41.9718320  65.6281860
  16.9474930  38.7284300  51.4421840  16.7463990  37.8651660  51.8035180
  16.7766980  38.6417660  50.5043440  17.7244160  49.3590570  66.1529510
  17.1865250  50.0836630  65.8338210  17.9778120  48.8820910  65.3626850
  18.9769410  37.3275090  67.6785440  19.5669100  37.0190940  68.3663260
  18.1589650  36.8554840  67.8345340  23.7962840  36.9440900  67.9118460
  23.1078360  36.2822440  67.8468450  24.5168860  36.4979170  68.3566920
  24.4263240  33.5392530  53.9708720  24.7065530  32.6960430  54.3268140
  23.6528970  33.7715640  54.4847470  15.7457730  35.8284920  51.4299720
  16.0483630  35.8352350  50.5218870  16.4852320  35.4782780  51.9267380
  20.5806370  50.5941780  66.4116160  20.5065070  51.4976920  66.7188530
  19.6785210  50.2753680  66.3838230  21.1291700  49.7600290  54.0342520
  22.0242490  50.0985260  54.0561280  21.1609330  49.0379700  53.4066800
  14.7687860  45.1327340  52.2629520  15.2062730  45.6757010  52.9187100
  15.2535590  44.3074290  52.2725860  11.9833660  47.9216370  59.7149780
  12.3136670  47.0537430  59.4828420  12.4124660  48.1274890  60.5454740
  16.5795580  46.2525380  57.3751750  16.2791120  46.1290350  58.2755660
  16.4733070  45.3933970  56.9667480  12.4723870  48.7886960  62.4531410
  12.0354860  48.9687760  63.2855560  13.0401550  49.5461580  62.3113130
  28.1086050  48.2903960  66.7408720  27.5088040  48.3496520  65.9972640
  28.2379950  47.3508940  66.8705570  12.3048300  41.3007190  58.8120290
  11.6497140  41.0318830  58.1679990  13.1426250  41.1911670  58.3622270
  26.7937690  45.0155940  64.8384880  25.9797530  45.4453100  65.1010670
  27.2011890  45.6274350  64.2253930  13.3424230  41.6859760  63.3523630
  13.7097270  41.5987160  64.2319650  12.7735050  40.9226310  63.2530490
  28.1428090  40.1544140  66.3654100  27.9114180  39.9256890  65.4652050
  28.4032640  41.0743690  66.3198990  12.8940230  38.5968850  67.2582050
  11.9996280  38.5635610  67.5975760  13.4337780  38.7955640  68.0233300
  26.5816160  35.3800570  69.1433800  27.4586340  35.3883970  69.5267800
  26.5937000  34.6431410  68.5326150  11.5186380  38.5106120  54.7545620
  10.6150460  38.7736320  54.5797280  12.0027000  38.7817290  53.9745580
  28.0279430  39.2330110  60.0321820  28.5516910  38.7392760  59.4011990
  28.6138850  39.3680470  60.7769390  28.2069150  39.3169980  63.5541370
  27.2571860  39.2833520  63.6686360  28.3882160  40.2270090  63.3191140
  14.0613590  37.5671660  52.6640000  14.7705290  37.1454880  52.1787280
  13.3453530  37.6346890  52.0323350  13.7087750  33.6210990  51.7042650
  14.4315880  34.1619930  52.0223870  13.9812270  33.3474410  50.8284190
  13.3979940  32.8717180  61.6065270  14.0456130  32.3214560  61.1660430
  13.8181780  33.1260330  62.4281080  27.2932280  33.0658540  64.9634910
  27.9304500  33.6792680  65.3294100  27.4407170  33.1019200  64.0184140
  26.8513740  49.7674540  58.3653150  27.4472810  49.4459110  57.6887570
  27.1091890  49.2946360  59.1566420  13.1511940  33.0272850  64.3490590
  12.8026760  33.4836670  65.1148770  12.8199640  32.1329980  64.4313020
  14.7576310  46.1992450  68.5143780  14.7145940  45.8285360  69.3958240
  14.8887320  47.1370020  68.6545600  18.4582340  47.7552040  64.1153500
  18.2173700  48.0226600  63.2284020  19.3984980  47.9257770  64.1704360
  20.6636760  34.2184730  67.8710010  20.6025650  34.8106560  68.6205420
  21.6037140  34.1110690  67.7260270  23.3011320  33.8754790  67.5102300
  23.9151730  34.1934080  66.8483380  23.8460880  33.3903380  68.1298160
  29.7186500  49.7746420  64.9164140  29.2244780  50.1715290  64.1991270
  29.1099790  49.1495630  65.3101420  13.8232580  32.5549050  67.6241360
  14.3715570  32.3737100  66.8607470  13.8887890  31.7643160  68.1597670
  14.5964340  49.1454700  65.6341560  14.0024660  49.0139400  66.3731600
  14.5888180  48.3092840  65.1683660  24.0419360  32.4386930  63.8371590
  23.1679200  32.7722040  63.6344520  23.9330110  31.9660110  64.6623460
  24.9491340  34.6457800  65.2213310  24.6204700  33.8309560  64.8415040
  25.8973640  34.6027610  65.0979000  27.4025950  50.4169840  62.1950880
  26.9428920  51.1685650  61.8208900  26.7738410  49.6976310  62.1365680
  14.2276570  46.5113080  64.5849600  13.5010630  45.8918370  64.5175550
  14.2885720  46.9053690  63.7147680  17.8321670  48.7258080  61.3699010
  18.3486690  48.1145440  60.8447270  18.4819050  49.2286860  61.8610020
  20.5717170  49.6166570  62.1967990  20.8594980  49.3620870  61.3201000
  21.0840390  49.0643930  62.7873560  21.7894180  33.3556770  62.7764500
  21.0065970  33.8302270  63.0561260  21.4957110  32.4511600  62.6677680
  26.3415250  34.0579870  60.8213590  26.7823340  34.0024970  59.9735190
  26.0722840  34.9737880  60.8923770  28.2053820  33.6895110  58.8322410
  28.1442220  32.7456330  58.6853430  28.9845850  33.7975200  59.3775870
  12.5106570  49.8287470  57.7946360  12.3428610  49.1958150  58.4928250
  11.6441080  50.0346870  57.4440550  13.1334590  33.6604250  55.2978220
  13.8913950  33.7733130  54.7242250  12.6711760  34.4973450  55.2521650
  19.6748400  35.7743520  58.2880530  18.8622910  35.4000410  57.9476410
  20.1790040  35.0188600  58.5901720  24.1773380  32.4385970  59.5263600
  24.7802750  33.0106180  60.0012120  23.4366370  33.0025410  59.3037500
  27.3207980  32.8407530  54.8003880  27.5158610  33.7390980  55.0671310
  26.5337850  32.6094610  55.2936830  14.1169270  48.5220700  55.2396500
  13.5916890  48.9028730  54.5358460  14.0413850  49.1471470  55.9606210
  15.5059740  34.1868300  53.8380190  16.0352500  33.3998100  53.7088140
  16.1388060  34.8659490  54.0715720  17.6997580  33.9243440  56.8925580
  17.0700320  33.2230750  57.0595710  17.1602720  34.6847570  56.6758740
  20.6389530  50.5382670  69.5636190  21.5656840  50.3026940  69.6072150
  20.6239960  51.3654670  69.0822220  17.8253140  33.2027420  69.3278070
  17.5437410  33.7061020  68.5638890  18.2072840  32.4049170  68.9620200
  16.7162240  50.4703080  54.1145750  17.4481060  50.1862360  53.5669640
  16.9755910  50.2316360  55.0045130  15.8777030  46.5867810  54.1192080
  15.2485910  47.0552910  54.6677910  15.9924860  45.7417030  54.5538270
  24.4268600  32.6181000  69.9058540  24.3134050  32.9375610  70.8010060
  25.2438340  33.0193510  69.6095820  27.2067090  49.7652530  69.3877230
  27.9992410  49.2701760  69.1803190  27.5000240  50.4442670  69.9952840
  15.4810620  42.7272300  43.0278310  14.6495500  42.4721010  43.4274820
  16.0891600  42.7983070  43.7636230  15.4611880  46.7612390  43.2236330
  15.7639920  45.8710130  43.0446550  16.2055470  47.3182610  42.9958580
  11.8535580  40.2879840  42.6960400  12.4251690  39.5202040  42.6964040
  11.8537120  40.5868600  41.7867010  21.7115530  49.1070690  40.5505670
  21.0926970  49.5628190  39.9800110  22.5667310  49.2622150  40.1495370
  20.9053780  45.0909680  42.1572710  20.8362060  44.1499620  41.9961840
  21.6673640  45.1811090  42.7295280  13.0960450  35.6964200  44.4829330
  12.9163290  34.7989950  44.7632090  12.6940530  36.2436070  45.1576280
  13.7147120  38.1924700  43.0911670  14.3957230  38.4563070  43.7099070
  13.3995170  37.3525570  43.4249680  17.4410640  43.5185800  44.6221180
  17.1080020  44.1454720  45.2642250  17.6177320  44.0447680  43.8422850
  15.8723120  35.5900580  44.4518130  16.2139930  36.4342630  44.1572000
  14.9338930  35.7384320  44.5683470  16.6529740  45.4866600  46.4370360
  17.2703740  46.1617680  46.1554810  15.7922860  45.8954580  46.3457860
  11.9462080  44.6766460  35.3177210  11.5690060  45.1653560  34.5862110
  12.2035150  45.3491740  35.9483740  17.5488410  41.6696420  40.2942570
  17.1445410  40.9573670  39.7988470  17.6351530  41.3249660  41.1830610
  18.0170110  45.3563980  42.4581780  17.7198400  44.7509450  41.7789560
  18.9669930  45.3941290  42.3471140  16.2617030  38.4439630  44.0741610
  16.8131620  38.5534970  43.2994860  16.7760540  38.8177230  44.7896840
  17.1088540  45.0945670  49.1089580  16.2117070  45.3185640  49.3562980
  17.1341410  45.2180610  48.1600980  15.9359760  41.9658990  47.6846950
  15.7967530  42.8381790  48.0534350  15.0541120  41.6231800  47.5394890
  22.2589140  46.8834860  38.9912080  22.6985050  47.6259190  38.5767470
  22.1976030  47.1261430  39.9151040  17.7340110  47.9080690  49.8932100
  17.7055540  48.3123640  49.0260530  17.5705080  46.9791050  49.7303700
  14.2493040  40.5641400  37.7949220  14.1290640  41.2903490  37.1830490
  13.9393930  39.7944310  37.3177130  11.8878410  43.7356540  43.6017860
  11.9658830  43.8705310  42.6573580  12.5020090  43.0272430  43.7945980
  13.1326040  45.4356730  40.0124040  12.7254120  45.5771320  39.1577640
  14.0239050  45.1516890  39.8095250  22.9504920  49.5848640  46.9191090
  23.4649590  49.4956650  47.7213520  22.1074000  49.9308340  47.2119000
  17.4047700  49.6502510  38.1246710  17.2290180  48.7338050  37.9114510
  16.5503440  50.0089800  38.3644510  11.9437930  44.7770710  46.1412320
  12.1068970  44.3076070  45.3231690  12.4090380  44.2694270  46.8061160
  18.9470130  39.9295620  49.5714410  18.8513730  38.9890350  49.4214810
  19.7902110  40.1510690  49.1762480  14.0780670  36.3409290  47.7248190
  13.6844060  37.1884500  47.9320970  13.3899070  35.7035660  47.9156830
  11.3797720  34.2637750  41.7578270  11.0910770  34.8340610  42.4703250
  12.1243480  33.7842200  42.1209500  11.5667950  38.2057870  32.9680990
  11.4842620  39.1488630  33.1095980  11.2151010  38.0632780  32.0893340
  13.5176910  44.1522140  48.3008130  13.1331700  43.5115810  48.8991090
  13.8289100  44.8558260  48.8702860  17.4573420  40.0407320  46.1000960
  17.1530490  40.9199300  46.3251320  18.4119880  40.1007110  46.1358400
  15.9855210  44.2468310  36.6967810  15.2117470  43.7065930  36.5366530
  16.7149840  43.7274920  36.3585570  16.0292610  43.9148690  40.3346620
  16.5471280  43.1116950  40.2803510  15.5776630  43.8527830  41.1763450
  13.5137150  40.8810060  47.2472320  13.1552090  41.5463910  47.8345660
  13.2191710  40.0493610  47.6184940  16.7150270  41.3394300  50.1311870
  16.4150410  41.4851480  49.2339690  17.4861510  40.7799590  50.0385260
  22.0578720  46.1363300  48.1267000  22.0723260  45.2044260  47.9085910
  21.3503820  46.2223060  48.7656770  12.0245200  40.8801320  33.8706920
  12.8940050  41.1626120  34.1542840  11.5335520  41.6937190  33.7555730
  21.4912620  47.7780870  45.2207500  22.1354840  47.9840250  45.8980920
  21.8542060  47.0169270  44.7678350  12.3916450  50.0928700  34.4368550
  12.7514090  50.6918040  33.7825820  12.2508790  50.6388590  35.2103580
  12.0885720  34.3703300  47.9244420  11.3744240  34.5700220  48.5297030
  12.5080760  33.5942870  48.2959220  12.3758310  48.3583560  48.9110950
  12.4849430  47.4178300  48.7706340  11.7238870  48.6238310  48.2624680
  20.3670900  46.6299450  50.3109070  20.0467770  45.9108690  50.8554760
  19.6929260  47.3054520  50.3845130  14.0091710  42.6974790  35.9988980
  13.4019660  43.4373690  36.0084280  14.4841060  42.7874150  35.1727180
  20.0362780  50.0574460  38.6115080  20.2904280  50.0195850  37.6894450
  19.0875260  49.9307790  38.6043330  15.5158470  50.2406400  41.5344980
  16.2520950  49.6921860  41.8053550  15.8999390  51.1062410  41.3950970
  12.4003950  46.3079970  37.4086490  11.4743730  46.5501110  37.3991900
  12.8660380  47.1354230  37.2871240  14.5216750  49.4252470  50.7230560
  15.3229480  49.7464520  51.1365960  14.0068570  49.0648050  51.4450470
  12.2414560  41.9125930  49.6666610  12.7453580  41.3333210  50.2382840
  11.5021980  42.1966160  50.2042980  14.2737640  40.0555520  50.5616680
  14.3142980  39.7569390  51.4701910  15.1283140  40.4563130  50.4024200
  16.2143450  38.6347620  48.5291170  15.6839910  38.1438570  47.9014510
  16.8831520  39.0631820  47.9949100  16.7015750  35.6009990  48.6088460
  16.6072620  34.9830740  47.8839330  16.1213140  36.3276280  48.3818370
  19.4677190  34.1583230  45.6415850  19.0194490  34.1807490  44.7961400
  18.8342390  33.7602250  46.2386150  17.7244160  49.3590570  47.3786020
  17.1865250  50.0836630  47.0594720  17.9778120  48.8820910  46.5883360
  20.5806370  50.5941780  47.6372670  20.5065070  51.4976920  47.9445040
  19.6785210  50.2753680  47.6094740  11.9833660  47.9216370  40.9406290
  12.3136670  47.0537430  40.7084930  12.4124660  48.1274890  41.7711250
  16.5795580  46.2525380  38.6008260  16.2791120  46.1290350  39.5012170
  16.4733070  45.3933970  38.1923990  12.4723870  48.7886960  43.6787920
  12.0354860  48.9687760  44.5112070  13.0401550  49.5461580  43.5369640
  12.3048300  41.3007190  40.0376800  11.6497140  41.0318830  39.3936500
  13.1426250  41.1911670  39.5878780  13.3424230  41.6859760  44.5780140
  13.7097270  41.5987160  45.4576160  12.7735050  40.9226310  44.4787000
  12.8940230  38.5968850  48.4838560  11.9996280  38.5635610  48.8232270
  13.4337780  38.7955640  49.2489810  27.2932280  33.0658540  46.1891420
  27.9304500  33.6792680  46.5550610  27.4407170  33.1019200  45.2440650
  14.7576310  46.1992450  49.7400290  14.7145940  45.8285360  50.6214750
  14.8887320  47.1370020  49.8802110  18.4582340  47.7552040  45.3410010
  18.2173700  48.0226600  44.4540530  19.3984980  47.9257770  45.3960870
  20.6636760  34.2184730  49.0966520  20.6025650  34.8106560  49.8461930
  21.6037140  34.1110690  48.9516780  13.8232580  32.5549050  48.8497870
  14.3715570  32.3737100  48.0863980  13.8887890  31.7643160  49.3854180
  14.5964340  49.1454700  46.8598070  14.0024660  49.0139400  47.5988110
  14.5888180  48.3092840  46.3940170  14.2276570  46.5113080  45.8106110
  13.5010630  45.8918370  45.7432060  14.2885720  46.9053690  44.9404190
  17.8321670  48.7258080  42.5955520  18.3486690  48.1145440  42.0703780
  18.4819050  49.2286860  43.0866530  20.5717170  49.6166570  43.4224500
  20.8594980  49.3620870  42.5457510  21.0840390  49.0643930  44.0130070
  12.5106570  49.8287470  39.0202870  12.3428610  49.1958150  39.7184760
  11.6441080  50.0346870  38.6697060  14.1169270  48.5220700  36.4653010
  13.5916890  48.9028730  35.7614970  14.0413850  49.1471470  37.1862720
  20.6389530  50.5382670  50.7892700  21.5656840  50.3026940  50.8328660
  20.6239960  51.3654670  50.3078730  17.8253140  33.2027420  50.5534580
  17.5437410  33.7061020  49.7895400  18.2072840  32.4049170  50.1876710
  16.7162240  50.4703080  35.3402260  17.4481060  50.1862360  34.7926150
  16.9755910  50.2316360  36.2301640  15.8777030  46.5867810  35.3448590
  15.2485910  47.0552910  35.8934420  15.9924860  45.7417030  35.7794780
  24.4268600  32.6181000  51.1315050  24.3134050  32.9375610  52.0266570
  25.2438340  33.0193510  50.8352330  13.8902570  37.6874190  18.0377210
  13.0019270  38.0290160  17.9357090  14.1743760  37.4874510  17.1458040
  11.8535580  40.2879840  23.9216910  12.4251690  39.5202040  23.9220550
  11.8537120  40.5868600  23.0123520  21.7115530  49.1070690  21.7762180
  21.0926970  49.5628190  21.2056620  22.5667310  49.2622150  21.3751880
  13.0960450  35.6964200  25.7085840  12.9163290  34.7989950  25.9888600
  12.6940530  36.2436070  26.3832790  16.0663960  36.2705690  19.0715590
  16.1730710  37.1709420  19.3784350  15.1556320  36.2223660  18.7810240
  13.7147120  38.1924700  24.3168180  14.3957230  38.4563070  24.9355580
  13.3995170  37.3525570  24.6506190  16.1907790  33.8790620  27.6704190
  16.1926230  34.3963010  26.8650090  15.3612100  33.4020800  27.6474120
  11.9462080  44.6766460  16.5433720  11.5690060  45.1653560  15.8118620
  12.2035150  45.3491740  17.1740250  17.5488410  41.6696420  21.5199080
  17.1445410  40.9573670  21.0244980  17.6351530  41.3249660  22.4087120
  27.7310900  33.1981600  14.5628390  27.4183560  33.2908430  15.4627460
  28.4923370  33.7762630  14.5125820  14.2493040  40.5641400  19.0205730
  14.1290640  41.2903490  18.4087000  13.9393930  39.7944310  18.5433640
  11.8878410  43.7356540  24.8274370  11.9658830  43.8705310  23.8830090
  12.5020090  43.0272430  25.0202490  13.1326040  45.4356730  21.2380550
  12.7254120  45.5771320  20.3834150  14.0239050  45.1516890  21.0351760
  22.9504920  49.5848640  28.1447600  23.4649590  49.4956650  28.9470030
  22.1074000  49.9308340  28.4375510  17.4047700  49.6502510  19.3503220
  17.2290180  48.7338050  19.1371020  16.5503440  50.0089800  19.5901020
  16.7156700  33.9076470  22.4029400  16.2724850  34.6886010  22.0713920
  17.2741690  34.2306360  23.1100340  18.7532600  34.4523800  24.2619000
  19.0504930  35.3586630  24.1811020  19.3018160  33.9642580  23.6478570
  16.5070920  39.0310040  20.1310650  16.2811840  38.8147210  21.0357270
  15.7263450  39.4638500  19.7856620  14.0780670  36.3409290  28.9504700
  13.6844060  37.1884500  29.1577480  13.3899070  35.7035660  29.1413340
  11.3797720  34.2637750  22.9834780  11.0910770  34.8340610  23.6959760
  12.1243480  33.7842200  23.3466010  11.5667950  38.2057870  14.1937500
  11.4842620  39.1488630  14.3352490  11.2151010  38.0632780  13.3149850
  15.2168460  36.8223390  22.2202060  14.8768510  37.2998620  22.9769110
  14.4545780  36.3688510  21.8603160  18.4407730  40.2510120  15.6497910
  17.8724630  39.8028370  15.0233820  19.1496730  40.6102900  15.1163060
  12.5314540  35.7442370  21.1366730  12.2461460  35.3798040  21.9745350
  12.4693400  35.0122830  20.5229870  15.9855210  44.2468310  17.9224320
  15.2117470  43.7065930  17.7623040  16.7149840  43.7274920  17.5842080
  16.0292610  43.9148690  21.5603130  16.5471280  43.1116950  21.5060020
  15.5776630  43.8527830  22.4019960  19.8852800  45.2628500  19.6046350
  20.5723930  45.8097710  19.9853940  19.0985220  45.8069230  19.6395960
  12.0245200  40.8801320  15.0963430  12.8940050  41.1626120  15.3799350
  11.5335520  41.6937190  14.9812240  19.1880010  42.2674530  19.2171710
  19.6442790  43.0779780  19.4431900  18.8368220  41.9497670  20.0490200
  21.4912620  47.7780870  26.4464010  22.1354840  47.9840250  27.1237430
  21.8542060  47.0169270  25.9934860  15.0891790  32.6112180  19.6894230
  14.9606420  32.6030080  20.6379150  14.2653810  32.9495270  19.3385240
  12.3916450  50.0928700  15.6625060  12.7514090  50.6918040  15.0082330
  12.2508790  50.6388590  16.4360090  12.0885720  34.3703300  29.1500930
  11.3744240  34.5700220  29.7553540  12.5080760  33.5942870  29.5215730
  12.3758310  48.3583560  30.1367460  12.4849430  47.4178300  29.9962850
  11.7238870  48.6238310  29.4881190  18.4085070  47.4759900  16.4798730
  18.3995170  48.2089590  15.8643240  17.4883430  47.2291480  16.5725690
  14.0091710  42.6974790  17.2245490  13.4019660  43.4373690  17.2340790
  14.4841060  42.7874150  16.3983690  20.0362780  50.0574460  19.8371590
  20.2904280  50.0195850  18.9150960  19.0875260  49.9307790  19.8299840
  16.0197000  42.6585940  14.9734060  16.7860270  42.5467300  15.5359490
  16.0971690  41.9623910  14.3210830  14.7143760  40.0911010  15.6566950
  14.7947350  39.1438520  15.7684350  15.6063510  40.4217890  15.7627610
  15.5158470  50.2406400  22.7601490  16.2520950  49.6921860  23.0310060
  15.8999390  51.1062410  22.6207480  12.4003950  46.3079970  18.6343000
  11.4743730  46.5501110  18.6248410  12.8660380  47.1354230  18.5127750
  14.5216750  49.4252470  31.9487070  15.3229480  49.7464520  32.3622470
  14.0068570  49.0648050  32.6706980  18.6260780  49.4136710  14.5827060
  19.4189390  49.7025540  14.1308850  18.1065130  48.9828880  13.9039540
  24.7881750  49.2612630  30.5071890  25.7403500  49.1770650  30.4572130
  24.6409970  49.9254340  31.1805680  12.2414560  41.9125930  30.8923120
  12.7453580  41.3333210  31.4639350  11.5021980  42.1966160  31.4299490
  19.1438180  44.6340120  14.4469410  19.0388820  44.0192470  15.1730790
  18.9762400  44.1106010  13.6632420  18.0516030  42.6551070  16.9476700
  18.4732450  42.4890940  17.7908090  18.1766870  41.8451300  16.4531840
  20.5643670  41.6788680  14.1953800  21.0849330  40.9637700  13.8294950
  21.2112070  42.3174550  14.4954310  16.9474930  38.7284300  13.8934860
  16.7463990  37.8651660  14.2548200  16.7766980  38.6417660  12.9556460
  17.7244160  49.3590570  28.6042530  17.1865250  50.0836630  28.2851230
  17.9778120  48.8820910  27.8139870  15.7457730  35.8284920  13.8812740
  16.0483630  35.8352350  12.9731890  16.4852320  35.4782780  14.3780400
  20.5806370  50.5941780  28.8629180  20.5065070  51.4976920  29.1701550
  19.6785210  50.2753680  28.8351250  18.9642660  34.7719540  14.8668940
  18.6164660  34.0943530  14.2871390  19.1655430  34.3109050  15.6812330
  21.1291700  49.7600290  16.4855540  22.0242490  50.0985260  16.5074300
  21.1609330  49.0379700  15.8579820  14.7687860  45.1327340  14.7142540
  15.2062730  45.6757010  15.3700120  15.2535590  44.3074290  14.7238880
  11.9833660  47.9216370  22.1662800  12.3136670  47.0537430  21.9341440
  12.4124660  48.1274890  22.9967760  16.5795580  46.2525380  19.8264770
  16.2791120  46.1290350  20.7268680  16.4733070  45.3933970  19.4180500
  12.4723870  48.7886960  24.9044430  12.0354860  48.9687760  25.7368580
  13.0401550  49.5461580  24.7626150  12.3048300  41.3007190  21.2633310
  11.6497140  41.0318830  20.6193010  13.1426250  41.1911670  20.8135290
  25.2538740  36.0948480  15.4851800  25.6723620  35.9079460  14.6448460
  24.9474800  35.2427530  15.7954730  12.8940230  38.5968850  29.7095070
  11.9996280  38.5635610  30.0488780  13.4337780  38.7955640  30.4746320
  11.5186380  38.5106120  17.2058640  10.6150460  38.7736320  17.0310300
  12.0027000  38.7817290  16.4258600  14.0613590  37.5671660  15.1153020
  14.7705290  37.1454880  14.6300300  13.3453530  37.6346890  14.4836370
  13.7087750  33.6210990  14.1555670  14.4315880  34.1619930  14.4736890
  13.9812270  33.3474410  13.2797210  13.3979940  32.8717180  24.0578290
  14.0456130  32.3214560  23.6173450  13.8181780  33.1260330  24.8794100
  29.8356830  34.9572330  14.1971070  30.7606140  34.8253510  13.9889360
  29.8132620  35.0365150  15.1507520  13.1511940  33.0272850  26.8003610
  12.8026760  33.4836670  27.5661790  12.8199640  32.1329980  26.8826040
  13.8232580  32.5549050  30.0754380  14.3715570  32.3737100  29.3120490
  13.8887890  31.7643160  30.6110690  14.5964340  49.1454700  28.0854580
  14.0024660  49.0139400  28.8244620  14.5888180  48.3092840  27.6196680
  17.8321670  48.7258080  23.8212030  18.3486690  48.1145440  23.2960290
  18.4819050  49.2286860  24.3123040  20.5717170  49.6166570  24.6481010
  20.8594980  49.3620870  23.7714020  21.0840390  49.0643930  25.2386580
  12.5106570  49.8287470  20.2459380  12.3428610  49.1958150  20.9441270
  11.6441080  50.0346870  19.8953570  13.1334590  33.6604250  17.7491240
  13.8913950  33.7733130  17.1755270  12.6711760  34.4973450  17.7034670
  14.1169270  48.5220700  17.6909520  13.5916890  48.9028730  16.9871480
  14.0413850  49.1471470  18.4119230  15.5059740  34.1868300  16.2893210
  16.0352500  33.3998100  16.1601160  16.1388060  34.8659490  16.5228740
  20.6389530  50.5382670  32.0149210  21.5656840  50.3026940  32.0585170
  20.6239960  51.3654670  31.5335240  16.7162240  50.4703080  16.5658770
  17.4481060  50.1862360  16.0182660  16.9755910  50.2316360  17.4558150
  15.8777030  46.5867810  16.5705100  15.2485910  47.0552910  17.1190930
  15.9924860  45.7417030  17.0051290  23.3326750  40.6373470   2.7206300
  23.2520800  39.7228080   2.4498010  22.9191170  41.1340540   2.0146010
  21.4644790  42.4152490   4.6015570  20.6886890  41.9352930   4.8914140
  22.1157720  41.7358140   4.4271730  15.4810620  42.7272300   5.4791330
  14.6495500  42.4721010   5.8787840  16.0891600  42.7983070   6.2149250
  25.4852220  46.8212680   3.3814700  25.0233750  46.0499920   3.7101870
  26.2977770  46.8478750   3.8867150  15.4611880  46.7612390   5.6749350
  15.7639920  45.8710130   5.4959570  16.2055470  47.3182610   5.4471600
  11.8535580  40.2879840   5.1473420  12.4251690  39.5202040   5.1477060
  11.8537120  40.5868600   4.2380030  21.7115530  49.1070690   3.0018690
  21.0926970  49.5628190   2.4313130  22.5667310  49.2622150   2.6008390
  20.9053780  45.0909680   4.6085730  20.8362060  44.1499620   4.4474860
  21.6673640  45.1811090   5.1808300  13.0960450  35.6964200   6.9342350
  12.9163290  34.7989950   7.2145110  12.6940530  36.2436070   7.6089300
  21.9358950  37.8980060   4.8354660  22.3123770  37.0251940   4.7228330
  21.8378460  38.2338760   3.9445100  25.7183070  35.3930500   1.7683000
  26.5392690  34.9027070   1.8108480  25.7517150  35.9828160   2.5214840
  13.7147120  38.1924700   5.5424690  14.3957230  38.4563070   6.1612090
  13.3995170  37.3525570   5.8762700  17.9071690  39.2392060   4.6297280
  18.4149910  39.7373030   5.2702300  18.4384930  38.4627260   4.4536640
  30.0082620  37.4097250   8.3326630  29.3034790  37.7978960   7.8141740
  30.2740540  38.1047540   8.9347560  16.1907790  33.8790620   8.8960700
  16.1926230  34.3963010   8.0906600  15.3612100  33.4020800   8.8730630
  17.4410640  43.5185800   7.0734200  17.1080020  44.1454720   7.7155270
  17.6177320  44.0447680   6.2935870  25.9544550  37.3330880   4.5410540
  25.2500120  37.6215770   5.1213650  26.3156710  38.1430990   4.1810100
  15.8723120  35.5900580   6.9031150  16.2139930  36.4342630   6.6085020
  14.9338930  35.7384320   7.0196490  16.6529740  45.4866600   8.8883380
  17.2703740  46.1617680   8.6067830  15.7922860  45.8954580   8.7970880
  27.5707330  46.9506010   6.8038020  26.8870850  47.6205120   6.7954690
  28.1101620  47.1486660   6.0382880  29.0231470  36.7785670   4.9319750
  28.0756380  36.8124650   5.0635180  29.3481460  37.5924620   5.3169110
  19.5551010  33.0782850   3.2275740  19.8625990  32.5229740   2.5111240
  18.6251710  33.2127310   3.0448730  25.1066070  48.7950140   5.5183200
  25.1193230  48.3912430   4.6505460  24.5541290  49.5697430   5.4144630
  24.5051510  43.6979980   6.8465810  24.9220300  43.4840090   6.0119270
  25.2291330  43.9552770   7.4174430  28.4513610  42.0967200   6.9382050
  27.6232240  42.1660290   6.4632180  29.0464090  42.6821510   6.4697880
  25.4155620  38.8836520   7.8836920  25.0026800  39.7090230   8.1376910
  24.6831570  38.2981560   7.6913280  17.5488410  41.6696420   2.7455590
  17.1445410  40.9573670   2.2501490  17.6351530  41.3249660   3.6343630
  18.0170110  45.3563980   4.9094800  17.7198400  44.7509450   4.2302580
  18.9669930  45.3941290   4.7984160  16.2617030  38.4439630   6.5254630
  16.8131620  38.5534970   5.7507880  16.7760540  38.8177230   7.2409860
  26.1055720  48.9295850   8.5717900  25.6286280  49.7368040   8.3790510
  25.4217510  48.2774180   8.7244110  17.1088540  45.0945670  11.5602600
  16.2117070  45.3185640  11.8076000  17.1341410  45.2180610  10.6114000
  15.9359760  41.9658990  10.1359970  15.7967530  42.8381790  10.5047370
  15.0541120  41.6231800   9.9907910  17.7340110  47.9080690  12.3445120
  17.7055540  48.3123640  11.4773550  17.5705080  46.9791050  12.1816720
  29.6854930  48.6907790  13.6409290  30.1614650  49.1690680  14.3198370
  30.3062090  48.6225280  12.9154790  11.8878410  43.7356540   6.0530880
  11.9658830  43.8705310   5.1086600  12.5020090  43.0272430   6.2459000
  29.0888180  45.8820640  10.8009300  29.2151240  45.6432520   9.8826480
  29.1309560  45.0505180  11.2731380  22.9504920  49.5848640   9.3704110
  23.4649590  49.4956650  10.1726540  22.1074000  49.9308340   9.6632020
  28.9412190  37.9353100  11.7659040  28.3256460  38.4432770  11.2374500
  28.6208610  37.0351430  11.7084980  11.9437930  44.7770710   8.5925340
  12.1068970  44.3076070   7.7744710  12.4090380  44.2694270   9.2574180
  16.7156700  33.9076470   3.6285910  16.2724850  34.6886010   3.2970430
  17.2741690  34.2306360   4.3356850  21.0026510  36.7744990   9.2321230
  20.5405880  36.9828010  10.0441170  20.6004620  35.9604340   8.9291900
  26.0031020  37.9953940  10.3617890  25.1524610  37.6959690  10.6826960
  25.8432810  38.2395950   9.4501710  23.0980730  39.4955690  12.4616680
  23.4234140  38.6619440  12.1218910  23.8861060  40.0184210  12.6095010
  18.7532600  34.4523800   5.4875510  19.0504930  35.3586630   5.4067530
  19.3018160  33.9642580   4.8735080  18.9470130  39.9295620  12.0227430
  18.8513730  38.9890350  11.8727830  19.7902110  40.1510690  11.6275500
  14.0780670  36.3409290  10.1761210  13.6844060  37.1884500  10.3833990
  13.3899070  35.7035660  10.3669850  20.6525720  36.4244260  13.2457950
  19.9624040  36.2316460  13.8804040  21.3958020  36.7078900  13.7782250
  11.3797720  34.2637750   4.2091290  11.0910770  34.8340610   4.9216270
  12.1243480  33.7842200   4.5722520  22.9288690  40.2642700   6.0811870
  22.1969810  40.7729510   6.4301970  22.5313030  39.4472680   5.7800650
  19.3666080  36.9396900   4.4864360  19.3702140  36.4986850   3.6368900
  20.2617200  37.2614230   4.5936180  15.2168460  36.8223390   3.4458570
  14.8768510  37.2998620   4.2025620  14.4545780  36.3688510   3.0859670
  23.3914600  35.7176380   5.4934810  23.4087340  36.1685030   6.3376660
  23.1430180  34.8182020   5.7068250  26.8185350  33.1308560  11.3321190
  27.1431120  32.3998220  11.8579170  26.8541860  32.8122200  10.4302180
  13.5176910  44.1522140  10.7521150  13.1331700  43.5115810  11.3504110
  13.8289100  44.8558260  11.3215880  19.6674050  40.9998680   6.2329770
  20.0344180  40.5257250   6.9791110  19.4779110  41.8740250   6.5738110
  12.5314540  35.7442370   2.3623240  12.2461460  35.3798040   3.2001860
  12.4693400  35.0122830   1.7486380  17.4573420  40.0407320   8.5513980
  17.1530490  40.9199300   8.7764340  18.4119880  40.1007110   8.5871420
  26.7443190  43.2433670   4.9407220  27.4642310  43.7388960   4.5503330
  26.5425010  42.5651560   4.2961090  22.1261990  43.3142730  10.8276220
  22.0599300  42.3938400  10.5733810  21.4967130  43.4118170  11.5420860
  16.0292610  43.9148690   2.7859640  16.5471280  43.1116950   2.7316530
  15.5776630  43.8527830   3.6276470  13.5137150  40.8810060   9.6985340
  13.1552090  41.5463910  10.2858680  13.2191710  40.0493610  10.0697960
  16.7150270  41.3394300  12.5824890  16.4150410  41.4851480  11.6852710
  17.4861510  40.7799590  12.4898280  22.0578720  46.1363300  10.5780020
  22.0723260  45.2044260  10.3598930  21.3503820  46.2223060  11.2169790
  28.2689930  42.7770640   9.9248600  27.5438120  43.3699420   9.7277990
  28.7965390  42.7694180   9.1261970  23.7989520  44.5030810   3.4232450
  24.1513340  43.9058940   2.7633820  22.9151850  44.1775040   3.5940700
  21.4912620  47.7780870   7.6720520  22.1354840  47.9840250   8.3493940
  21.8542060  47.0169270   7.2191370  22.7644700  45.7813220   6.3897970
  23.4066930  45.0806380   6.5030140  23.2894050  46.5611660   6.2094860
  24.5382320  46.5808120   9.5934030  24.8738560  47.1674810  10.2711950
  23.6182660  46.4500830   9.8231820  12.0885720  34.3703300  10.3757440
  11.3744240  34.5700220  10.9810050  12.5080760  33.5942870  10.7472240
  12.3758310  48.3583560  11.3623970  12.4849430  47.4178300  11.2219360
  11.7238870  48.6238310  10.7137700  20.3670900  46.6299450  12.7622090
  20.0467770  45.9108690  13.3067780  19.6929260  47.3054520  12.8358150
  23.5824500  36.8625610   8.1258890  23.9505320  36.0420820   8.4538460
  22.7222700  36.9227500   8.5414540  20.5426490  39.5165200   8.3496860
  21.0411740  39.9911020   9.0148710  20.6849440  38.5928720   8.5566890
  27.7493350  35.7333160   9.1925250  27.2466950  36.4738560   9.5319060
  28.5650010  36.1217160   8.8762040  26.0415360  40.9766340   2.6386610
  25.1005500  40.9916570   2.8134300  26.3559430  40.1902300   3.0846910
  28.0440940  48.1475190   4.3140870  28.1688360  48.9706360   4.7864680
  28.9106500  47.9365920   3.9665020  15.5158470  50.2406400   3.9858000
  16.2520950  49.6921860   4.2566570  15.8999390  51.1062410   3.8463990
  14.5216750  49.4252470  13.1743580  15.3229480  49.7464520  13.5878980
  14.0068570  49.0648050  13.8963490  24.7881750  49.2612630  11.7328400
  25.7403500  49.1770650  11.6828640  24.6409970  49.9254340  12.4062190
  12.2414560  41.9125930  12.1179630  12.7453580  41.3333210  12.6895860
  11.5021980  42.1966160  12.6556000  19.2952500  43.3196920  11.6515150
  18.5298170  43.8881920  11.5669820  19.4768460  43.0273130  10.7583380
  26.4375850  45.0502250  12.2090170  27.1785320  45.3878010  11.7057630
  25.6748530  45.2194310  11.6559940  14.2737640  40.0555520  13.0129700
  14.3142980  39.7569390  13.9214930  15.1283140  40.4563130  12.8537220
  16.2143450  38.6347620  10.9804190  15.6839910  38.1438570  10.3527530
  16.8831520  39.0631820  10.4462120  16.7015750  35.6009990  11.0601480
  16.6072620  34.9830740  10.3352350  16.1213140  36.3276280  10.8331390
  19.4677190  34.1583230   8.0928870  19.0194490  34.1807490   7.2474420
  18.8342390  33.7602250   8.6899170  19.8736740  43.0537560   8.7141310
  20.2924850  43.8970290   8.5417550  18.9545370  43.1909600   8.4848090
  22.2100640  40.7853740  10.0979150  22.3296850  40.1894880  10.8373990
  23.0694640  40.8223430   9.6780450  24.5488540  41.3390930   8.6741660
  24.0223760  41.8633550   8.0706800  24.8919880  41.9718320   9.3051390
  17.7244160  49.3590570   9.8299040  17.1865250  50.0836630   9.5107740
  17.9778120  48.8820910   9.0396380  18.9769410  37.3275090  11.3554970
  19.5669100  37.0190940  12.0432790  18.1589650  36.8554840  11.5114870
  23.7962840  36.9440900  11.5887990  23.1078360  36.2822440  11.5237980
  24.5168860  36.4979170  12.0336450  20.5806370  50.5941780  10.0885690
  20.5065070  51.4976920  10.3958060  19.6785210  50.2753680  10.0607760
  11.9833660  47.9216370   3.3919310  12.3136670  47.0537430   3.1597950
  12.4124660  48.1274890   4.2224270  12.4723870  48.7886960   6.1300940
  12.0354860  48.9687760   6.9625090  13.0401550  49.5461580   5.9882660
  28.1086050  48.2903960  10.4178250  27.5088040  48.3496520   9.6742170
  28.2379950  47.3508940  10.5475100  12.3048300  41.3007190   2.4889820
  11.6497140  41.0318830   1.8449520  13.1426250  41.1911670   2.0391800
  29.8103930  43.6319360   3.1024090  30.1812760  42.8486680   2.6960060
  30.4505860  44.3208460   2.9241390  26.7937690  45.0155940   8.5154410
  25.9797530  45.4453100   8.7780200  27.2011890  45.6274350   7.9023460
  13.3424230  41.6859760   7.0293160  13.7097270  41.5987160   7.9089180
  12.7735050  40.9226310   6.9300020  28.1428090  40.1544140  10.0423630
  27.9114180  39.9256890   9.1421580  28.4032640  41.0743690   9.9968520
  12.8940230  38.5968850  10.9351580  11.9996280  38.5635610  11.2745290
  13.4337780  38.7955640  11.7002830  26.5816160  35.3800570  12.8203330
  27.4586340  35.3883970  13.2037330  26.5937000  34.6431410  12.2095680
  28.0279430  39.2330110   3.7091350  28.5516910  38.7392760   3.0781520
  28.6138850  39.3680470   4.4538920  28.2069150  39.3169980   7.2310900
  27.2571860  39.2833520   7.3455890  28.3882160  40.2270090   6.9960670
  13.3979940  32.8717180   5.2834800  14.0456130  32.3214560   4.8429960
  13.8181780  33.1260330   6.1050610  28.9466560  37.1264410   2.1821440
  28.8365840  36.9720450   3.1203710  29.7074150  36.5985350   1.9396850
  27.2932280  33.0658540   8.6404440  27.9304500  33.6792680   9.0063630
  27.4407170  33.1019200   7.6953670  13.1511940  33.0272850   8.0260120
  12.8026760  33.4836670   8.7918300  12.8199640  32.1329980   8.1082550
  14.7576310  46.1992450  12.1913310  14.7145940  45.8285360  13.0727770
  14.8887320  47.1370020  12.3315130  18.4582340  47.7552040   7.7923030
  18.2173700  48.0226600   6.9053550  19.3984980  47.9257770   7.8473890
  20.6636760  34.2184730  11.5479540  20.6025650  34.8106560  12.2974950
  21.6037140  34.1110690  11.4029800  23.3011320  33.8754790  11.1871830
  23.9151730  34.1934080  10.5252910  23.8460880  33.3903380  11.8067690
  29.7186500  49.7746420   8.5933670  29.2244780  50.1715290   7.8760800
  29.1099790  49.1495630   8.9870950  13.8232580  32.5549050  11.3010890
  14.3715570  32.3737100  10.5377000  13.8887890  31.7643160  11.8367200
  14.5964340  49.1454700   9.3111090  14.0024660  49.0139400  10.0501130
  14.5888180  48.3092840   8.8453190  24.0419360  32.4386930   7.5141120
  23.1679200  32.7722040   7.3114050  23.9330110  31.9660110   8.3392990
  24.9491340  34.6457800   8.8982840  24.6204700  33.8309560   8.5184570
  25.8973640  34.6027610   8.7748530  27.4025950  50.4169840   5.8720410
  26.9428920  51.1685650   5.4978430  26.7738410  49.6976310   5.8135210
  14.2276570  46.5113080   8.2619130  13.5010630  45.8918370   8.1945080
  14.2885720  46.9053690   7.3917210  17.8321670  48.7258080   5.0468540
  18.3486690  48.1145440   4.5216800  18.4819050  49.2286860   5.5379550
  20.5717170  49.6166570   5.8737520  20.8594980  49.3620870   4.9970530
  21.0840390  49.0643930   6.4643090  21.7894180  33.3556770   6.4534030
  21.0065970  33.8302270   6.7330790  21.4957110  32.4511600   6.3447210
  26.3415250  34.0579870   4.4983120  26.7823340  34.0024970   3.6504720
  26.0722840  34.9737880   4.5693300  28.2053820  33.6895110   2.5091940
  28.1442220  32.7456330   2.3622960  28.9845850  33.7975200   3.0545400
  24.1773380  32.4385970   3.2033130  24.7802750  33.0106180   3.6781650
  23.4366370  33.0025410   2.9807030  20.6389530  50.5382670  13.2405720
  21.5656840  50.3026940  13.2841680  20.6239960  51.3654670  12.7591750
  17.8253140  33.2027420  13.0047600  17.5437410  33.7061020  12.2408420
  18.2072840  32.4049170  12.6389730  24.4268600  32.6181000  13.5828070
  24.3134050  32.9375610  14.4779590  25.2438340  33.0193510  13.2865350
  27.2067090  49.7652530  13.0646760  27.9992410  49.2701760  12.8572720
  27.5000240  50.4442670  13.6722370  23.3326750  21.8629980  77.8180260
  23.2520800  20.9484590  77.5471970  22.9191170  22.3597050  77.1119970
  21.4644790  23.6409000  79.6989530  20.6886890  23.1609440  79.9888100
  22.1157720  22.9614650  79.5245690  15.4810620  23.9528810  80.5765290
  14.6495500  23.6977520  80.9761800  16.0891600  24.0239580  81.3123210
  25.4852220  28.0469190  78.4788660  25.0233750  27.2756430  78.8075830
  26.2977770  28.0735260  78.9841110  15.4611880  27.9868900  80.7723310
  15.7639920  27.0966640  80.5933530  16.2055470  28.5439120  80.5445560
  13.8902570  18.9130700  74.3607680  13.0019270  19.2546670  74.2587560
  14.1743760  18.7131020  73.4688510  11.8535580  21.5136350  80.2447380
  12.4251690  20.7458550  80.2451020  11.8537120  21.8125110  79.3353990
  21.7115530  30.3327200  78.0992650  21.0926970  30.7884700  77.5287090
  22.5667310  30.4878660  77.6982350  20.9053780  26.3166190  79.7059690
  20.8362060  25.3756130  79.5448820  21.6673640  26.4067600  80.2782260
  21.9358950  19.1236570  79.9328620  22.3123770  18.2508450  79.8202290
  21.8378460  19.4595270  79.0419060  16.0663960  17.4962200  75.3946060
  16.1730710  18.3965930  75.7014820  15.1556320  17.4480170  75.1040710
  25.7183070  16.6187010  76.8656960  26.5392690  16.1283580  76.9082440
  25.7517150  17.2084670  77.6188800  13.7147120  19.4181210  80.6398650
  14.3957230  19.6819580  81.2586050  13.3995170  18.5782080  80.9736660
  17.9071690  20.4648570  79.7271240  18.4149910  20.9629540  80.3676260
  18.4384930  19.6883770  79.5510600  22.5778880  25.2166440  75.4924560
  21.9596150  25.6815890  74.9287280  23.0902130  25.9093920  75.9094070
  25.9544550  18.5587390  79.6384500  25.2500120  18.8472280  80.2187610
  26.3156710  19.3687500  79.2784060  11.9462080  25.9022970  72.8664190
  11.5690060  26.3910070  72.1349090  12.2035150  26.5748250  73.4970720
  27.5707330  28.1762520  81.9011980  26.8870850  28.8461630  81.8928650
  28.1101620  28.3743170  81.1356840  29.0231470  18.0042180  80.0293710
  28.0756380  18.0381160  80.1609140  29.3481460  18.8181130  80.4143070
  19.5551010  14.3039360  78.3249700  19.8625990  13.7486250  77.6085200
  18.6251710  14.4383820  78.1422690  25.1066070  30.0206650  80.6157160
  25.1193230  29.6168940  79.7479420  24.5541290  30.7953940  80.5118590
  26.4011490  26.7422870  75.7047330  26.2907820  25.7997200  75.8296750
  26.3979740  27.1038510  76.5910090  21.9431770  22.3688190  75.0609820
  21.0161050  22.3025570  75.2898290  22.0956590  23.3068320  74.9465060
  21.9300850  18.6405190  72.0576980  20.9904520  18.8019150  72.1429440
  22.2484110  19.3590870  71.5112970  28.4513610  23.3223710  82.0356010
  27.6232240  23.3916800  81.5606140  29.0464090  23.9078020  81.5671840
  25.9729060  23.9308490  75.5645070  25.3541480  23.5928040  74.9171370
  25.9553510  23.2868250  76.2724260  17.5488410  22.8952930  77.8429550
  17.1445410  22.1830180  77.3475450  17.6351530  22.5506170  78.7317590
  18.0170110  26.5820490  80.0068760  17.7198400  25.9765960  79.3276540
  18.9669930  26.6197800  79.8958120  24.1493760  23.1695300  72.5717820
  24.5887040  22.3317730  72.4255640  24.8622180  23.8024700  72.6581960
  22.2589140  28.1091370  76.5399060  22.6985050  28.8515700  76.1254450
  22.1976030  28.3517940  77.4638020  27.7310900  14.4238110  70.8858860
  27.4183560  14.5164940  71.7857930  28.4923370  15.0019140  70.8356290
  14.2493040  21.7897910  75.3436200  14.1290640  22.5160000  74.7317470
  13.9393930  21.0200820  74.8664110  11.8878410  24.9613050  81.1504840
  11.9658830  25.0961820  80.2060560  12.5020090  24.2528940  81.3432960
  13.1326040  26.6613240  77.5611020  12.7254120  26.8027830  76.7064620
  14.0239050  26.3773400  77.3582230  24.9259320  31.0960490  73.8962070
  24.7660460  30.8063430  74.7943900  24.7606030  30.3200620  73.3607300
  17.4047700  30.8759020  75.6733690  17.2290180  29.9594560  75.4601490
  16.5503440  31.2346310  75.9131490  24.6285450  28.6048050  72.4560070
  23.9350610  28.6025340  71.7962350  25.3708310  28.1807370  72.0254240
  24.1935380  30.2310760  76.5308560  24.6492330  29.4500140  76.8447180
  24.5327900  30.9417580  77.0749740  16.7156700  15.1332980  78.7259870
  16.2724850  15.9142520  78.3944390  17.2741690  15.4562870  79.4330810
  19.8315520  14.7543680  73.6065700  19.2069700  14.7503550  74.3319010
  19.7445640  13.8874640  73.2101670  18.7532600  15.6780310  80.5849470
  19.0504930  16.5843140  80.5041490  19.3018160  15.1899090  79.9709040
  16.5070920  20.2566550  76.4541120  16.2811840  20.0403720  77.3587740
  15.7263450  20.6895010  76.1087090  23.7368680  20.2629920  75.0531770
  23.1377570  20.9865720  74.8695390  24.2848290  20.2006700  74.2708220
  22.3433550  18.8993460  77.0835050  22.7363120  19.2165660  76.2703740
  22.7050400  18.0205340  77.1979570  11.3797720  15.4894260  79.3065250
  11.0910770  16.0597120  80.0190230  12.1243480  15.0098710  79.6696480
  11.5667950  19.4314380  70.5167970  11.4842620  20.3745140  70.6582960
  11.2151010  19.2889290  69.6380320  22.9288690  21.4899210  81.1785830
  22.1969810  21.9986020  81.5275930  22.5313030  20.6729190  80.8774610
  19.3666080  18.1653410  79.5838320  19.3702140  17.7243360  78.7342860
  20.2617200  18.4870740  79.6910140  15.2168460  18.0479900  78.5432530
  14.8768510  18.5255130  79.2999580  14.4545780  17.5945020  78.1833630
  19.4286230  19.1665490  72.5745080  19.5499050  19.1251970  73.5230900
  19.0434740  20.0289640  72.4191810  23.3914600  16.9432890  80.5908770
  23.4087340  17.3941540  81.4350620  23.1430180  16.0438530  80.8042210
  18.4407730  21.4766630  71.9728380  17.8724630  21.0284880  71.3464290
  19.1496730  21.8359410  71.4393530  12.5314540  16.9698880  77.4597200
  12.2461460  16.6054550  78.2975820  12.4693400  16.2379340  76.8460340
  15.9855210  25.4724820  74.2454790  15.2117470  24.9322440  74.0853510
  16.7149840  24.9531430  73.9072550  26.7443190  24.4690180  80.0381180
  27.4642310  24.9645470  79.6477290  26.5425010  23.7908070  79.3935050
  22.2053130  15.8628140  74.1810570  21.3917740  15.3641310  74.1055880
  22.0115080  16.7026390  73.7646920  24.9201520  20.2347790  72.4772730
  25.8081140  20.5465020  72.3024070  24.8906610  19.3620040  72.0853310
  16.0292610  25.1405200  77.8833600  16.5471280  24.3373460  77.8290490
  15.5776630  25.0784340  78.7250430  20.9162110  26.4071480  73.1560900
  21.2577810  27.1513710  72.6604220  20.0874820  26.7202600  73.5185730
  27.1915790  21.5459630  71.9452590  27.1079510  21.9773850  71.0949030
  27.9109980  22.0057980  72.3779410  28.2203040  28.4001890  74.6734720
  27.5779200  27.7457510  74.9478440  27.8333700  28.8056980  73.8975390
  23.7989520  25.7287320  78.5206410  24.1513340  25.1315450  77.8607780
  22.9151850  25.4031550  78.6914660  19.8852800  26.4885010  75.9276820
  20.5723930  27.0354220  76.3084410  19.0985220  27.0325740  75.9626430
  12.0245200  22.1057830  71.4193900  12.8940050  22.3882630  71.7029820
  11.5335520  22.9193700  71.3042710  19.1880010  23.4931040  75.5402180
  19.6442790  24.3036290  75.7662370  18.8368220  23.1754180  76.3720670
  15.0891790  13.8368690  76.0124700  14.9606420  13.8286590  76.9609620
  14.2653810  14.1751780  75.6615710  22.7644700  27.0069730  81.4871930
  23.4066930  26.3062890  81.6004100  23.2894050  27.7868170  81.3068820
  26.6100420  27.2918350  71.2111070  26.3838000  26.5748790  71.8035710
  26.2196620  27.0430790  70.3732820  12.3916450  31.3185210  71.9855530
  12.7514090  31.9174550  71.3312800  12.2508790  31.8645100  72.7590560
  26.1916670  25.2090290  72.8725230  25.9038370  25.6702980  73.6603110
  26.9868840  24.7488060  73.1409450  18.4085070  28.7016410  72.8029200
  18.3995170  29.4346100  72.1873710  17.4883430  28.4547990  72.8956160
  14.0091710  23.9231300  73.5475960  13.4019660  24.6630200  73.5571260
  14.4841060  24.0130660  72.7214160  26.9486530  17.0439060  74.0320410
  26.3199690  17.1484730  73.3178640  26.4538450  17.2635840  74.8214290
  21.3944670  28.7644650  71.4654390  21.4956650  28.5608640  70.5356370
  20.4946410  28.5102930  71.6702170  18.9170560  19.3225010  75.4478290
  18.2086710  19.7911350  75.8891900  19.2015040  18.6647020  76.0823480
  22.9485990  16.0475670  76.8874080  22.8253770  16.0661800  75.9383590
  23.8970550  16.0954610  77.0072480  20.0362780  31.2830970  76.1602060
  20.2904280  31.2452360  75.2381430  19.0875260  31.1564300  76.1530310
  17.1205580  17.6310090  72.8229000  17.9696110  18.0680240  72.7569190
  16.7536850  17.9430350  73.6501060  26.0415360  22.2022850  77.7360570
  25.1005500  22.2173080  77.9108260  26.3559430  21.4158810  78.1820870
  16.0197000  23.8842450  71.2964530  16.7860270  23.7723810  71.8589960
  16.0971690  23.1880420  70.6441300  14.7143760  21.3167520  71.9797420
  14.7947350  20.3695030  72.0914820  15.6063510  21.6474400  72.0858080
  28.0440940  29.3731700  79.4114830  28.1688360  30.1962870  79.8838640
  28.9106500  29.1622430  79.0638980  15.5158470  31.4662910  79.0831960
  16.2520950  30.9178370  79.3540530  15.8999390  32.3318920  78.9437950
  12.4003950  27.5336480  74.9573470  11.4743730  27.7757620  74.9478880
  12.8660380  28.3610740  74.8358220  18.6260780  30.6393220  70.9057530
  19.4189390  30.9282050  70.4539320  18.1065130  30.2085390  70.2270010
  27.6790950  29.8663350  72.3294270  27.3932460  29.4528490  71.5148450
  27.4810500  30.7951060  72.2094790  19.1438180  25.8596630  70.7699880
  19.0388820  25.2448980  71.4961260  18.9762400  25.3362520  69.9862890
  22.3840910  24.9216660  71.3741870  21.8351010  25.3685960  72.0184610
  23.0060170  24.4165910  71.8979540  18.0516030  23.8807580  73.2707170
  18.4732450  23.7147450  74.1138560  18.1766870  23.0707810  72.7762310
  20.5643670  22.9045190  70.5184270  21.0849330  22.1894210  70.1525420
  21.2112070  23.5431060  70.8184780  16.9474930  19.9540810  70.2165330
  16.7463990  19.0908170  70.5778670  16.7766980  19.8674170  69.2786930
  24.4263240  14.7649040  72.7452210  24.7065530  13.9216940  73.1011630
  23.6528970  14.9972150  73.2590960  15.7457730  17.0541430  70.2043210
  16.0483630  17.0608860  69.2962360  16.4852320  16.7039290  70.7010870
  18.9642660  15.9976050  71.1899410  18.6164660  15.3200040  70.6101860
  19.1655430  15.5365560  72.0042800  21.1291700  30.9856800  72.8086010
  22.0242490  31.3241770  72.8304770  21.1609330  30.2636210  72.1810290
  14.7687860  26.3583850  71.0373010  15.2062730  26.9013520  71.6930590
  15.2535590  25.5330800  71.0469350  11.9833660  29.1472880  78.4893270
  12.3136670  28.2793940  78.2571910  12.4124660  29.3531400  79.3198230
  16.5795580  27.4781890  76.1495240  16.2791120  27.3546860  77.0499150
  16.4733070  26.6190480  75.7410970  29.3487500  27.2578290  70.8521920
  28.5180460  27.3254940  71.3229150  29.5259330  28.1482410  70.5488780
  28.8043960  24.0025770  73.3556120  29.5662870  24.5722420  73.4615810
  28.8198330  23.4352970  74.1264430  12.3048300  22.5263700  77.5863780
  11.6497140  22.2575340  76.9423480  13.1426250  22.4168180  77.1365760
  29.8103930  24.8575870  78.1998050  30.1812760  24.0743190  77.7934020
  30.4505860  25.5464970  78.0215350  28.8563130  24.2960140  70.5128640
  29.1311970  25.2039020  70.3847860  28.6673870  24.2322670  71.4490630
  25.2538740  17.3204990  71.8082270  25.6723620  17.1335970  70.9678930
  24.9474800  16.4684040  72.1185200  28.7528470  22.2329130  75.5058070
  28.3772070  21.4657060  75.0739360  28.0231590  22.6151830  75.9933000
  11.5186380  19.7362630  73.5289110  10.6150460  19.9992830  73.3540770
  12.0027000  20.0073800  72.7489070  28.0279430  20.4586620  78.8065310
  28.5516910  19.9649270  78.1755480  28.6138850  20.5936980  79.5512880
  14.0613590  18.7928170  71.4383490  14.7705290  18.3711390  70.9530770
  13.3453530  18.8603400  70.8066840  13.7087750  14.8467500  70.4786140
  14.4315880  15.3876440  70.7967360  13.9812270  14.5730920  69.6027680
  27.5179400  19.7159970  74.7457720  28.0138520  19.4830840  75.5306600
  27.3195470  18.8771810  74.3295360  13.3979940  14.0973690  80.3808760
  14.0456130  13.5471070  79.9403920  13.8181780  14.3516840  81.2024570
  28.9466560  18.3520920  77.2795400  28.8365840  18.1976960  78.2177670
  29.7074150  17.8241860  77.0370810  29.8356830  16.1828840  70.5201540
  30.7606140  16.0510020  70.3119830  29.8132620  16.2621660  71.4737990
  29.9095320  16.9539500  73.1458250  29.1146820  16.8884620  73.6751160
  30.1138600  17.8890140  73.1343600  26.8513740  30.9931050  77.1396640
  27.4472810  30.6715620  76.4631060  27.1091890  30.5202870  77.9309910
  27.4025950  31.6426350  80.9694370  26.9428920  32.3942160  80.5952390
  26.7738410  30.9232820  80.9109170  17.8321670  29.9514590  80.1442500
  18.3486690  29.3401950  79.6190760  18.4819050  30.4543370  80.6353510
  20.5717170  30.8423080  80.9711480  20.8594980  30.5877380  80.0944490
  21.0840390  30.2900440  81.5617050  21.7894180  14.5813280  81.5507990
  21.0065970  15.0558780  81.8304750  21.4957110  13.6768110  81.4421170
  26.3415250  15.2836380  79.5957080  26.7823340  15.2281480  78.7478680
  26.0722840  16.1994390  79.6667260  28.2053820  14.9151620  77.6065900
  28.1442220  13.9712840  77.4596920  28.9845850  15.0231710  78.1519360
  12.5106570  31.0543980  76.5689850  12.3428610  30.4214660  77.2671740
  11.6441080  31.2603380  76.2184040  13.1334590  14.8860760  74.0721710
  13.8913950  14.9989640  73.4985740  12.6711760  15.7229960  74.0265140
  19.6748400  17.0000030  77.0624020  18.8622910  16.6256920  76.7219900
  20.1790040  16.2445110  77.3645210  24.1773380  13.6642480  78.3007090
  24.7802750  14.2362690  78.7755610  23.4366370  14.2281920  78.0780990
  27.3207980  14.0664040  73.5747370  27.5158610  14.9647490  73.8414800
  26.5337850  13.8351120  74.0680320  14.1169270  29.7477210  74.0139990
  13.5916890  30.1285240  73.3101950  14.0413850  30.3727980  74.7349700
  15.5059740  15.4124810  72.6123680  16.0352500  14.6254610  72.4831630
  16.1388060  16.0916000  72.8459210  17.6997580  15.1499950  75.6669070
  17.0700320  14.4487260  75.8339200  17.1602720  15.9104080  75.4502230
  28.8734590  31.3064750  75.3353930  29.0486780  30.6202490  74.6914850
  28.1756160  31.8311800  74.9430600  16.7162240  31.6959590  72.8889240
  17.4481060  31.4118870  72.3413130  16.9755910  31.4572870  73.7788620
  15.8777030  27.8124320  72.8935570  15.2485910  28.2809420  73.4421400
  15.9924860  26.9673540  73.3281760  23.3326750  21.8629980  59.0436770
  23.2520800  20.9484590  58.7728480  22.9191170  22.3597050  58.3376480
  21.4644790  23.6409000  60.9246040  20.6886890  23.1609440  61.2144610
  22.1157720  22.9614650  60.7502200  15.4810620  23.9528810  61.8021800
  14.6495500  23.6977520  62.2018310  16.0891600  24.0239580  62.5379720
  25.4852220  28.0469190  59.7045170  25.0233750  27.2756430  60.0332340
  26.2977770  28.0735260  60.2097620  15.4611880  27.9868900  61.9979820
  15.7639920  27.0966640  61.8190040  16.2055470  28.5439120  61.7702070
  13.8902570  18.9130700  55.5864190  13.0019270  19.2546670  55.4844070
  14.1743760  18.7131020  54.6945020  11.8535580  21.5136350  61.4703890
  12.4251690  20.7458550  61.4707530  11.8537120  21.8125110  60.5610500
  21.7115530  30.3327200  59.3249160  21.0926970  30.7884700  58.7543600
  22.5667310  30.4878660  58.9238860  20.9053780  26.3166190  60.9316200
  20.8362060  25.3756130  60.7705330  21.6673640  26.4067600  61.5038770
  13.0960450  16.9220710  63.2572820  12.9163290  16.0246460  63.5375580
  12.6940530  17.4692580  63.9319770  21.9358950  19.1236570  61.1585130
  22.3123770  18.2508450  61.0458800  21.8378460  19.4595270  60.2675570
  16.0663960  17.4962200  56.6202570  16.1730710  18.3965930  56.9271330
  15.1556320  17.4480170  56.3297220  25.7183070  16.6187010  58.0913470
  26.5392690  16.1283580  58.1338950  25.7517150  17.2084670  58.8445310
  13.7147120  19.4181210  61.8655160  14.3957230  19.6819580  62.4842560
  13.3995170  18.5782080  62.1993170  17.9071690  20.4648570  60.9527750
  18.4149910  20.9629540  61.5932770  18.4384930  19.6883770  60.7767110
  30.0082620  18.6353760  64.6557100  29.3034790  19.0235470  64.1372210
  30.2740540  19.3304050  65.2578030  16.1907790  15.1047130  65.2191170
  16.1926230  15.6219520  64.4137070  15.3612100  14.6277310  65.1961100
  22.5778880  25.2166440  56.7181070  21.9596150  25.6815890  56.1543790
  23.0902130  25.9093920  57.1350580  17.4410640  24.7442310  63.3964670
  17.1080020  25.3711230  64.0385740  17.6177320  25.2704190  62.6166340
  25.9544550  18.5587390  60.8641010  25.2500120  18.8472280  61.4444120
  26.3156710  19.3687500  60.5040570  15.8723120  16.8157090  63.2261620
  16.2139930  17.6599140  62.9315490  14.9338930  16.9640830  63.3426960
  16.6529740  26.7123110  65.2113850  17.2703740  27.3874190  64.9298300
  15.7922860  27.1211090  65.1201350  11.9462080  25.9022970  54.0920700
  11.5690060  26.3910070  53.3605600  12.2035150  26.5748250  54.7227230
  27.5707330  28.1762520  63.1268490  26.8870850  28.8461630  63.1185160
  28.1101620  28.3743170  62.3613350  29.0231470  18.0042180  61.2550220
  28.0756380  18.0381160  61.3865650  29.3481460  18.8181130  61.6399580
  19.5551010  14.3039360  59.5506210  19.8625990  13.7486250  58.8341710
  18.6251710  14.4383820  59.3679200  25.1066070  30.0206650  61.8413670
  25.1193230  29.6168940  60.9735930  24.5541290  30.7953940  61.7375100
  26.4011490  26.7422870  56.9303840  26.2907820  25.7997200  57.0553260
  26.3979740  27.1038510  57.8166600  24.5051510  24.9236490  63.1696280
  24.9220300  24.7096600  62.3349740  25.2291330  25.1809280  63.7404900
  21.9431770  22.3688190  56.2866330  21.0161050  22.3025570  56.5154800
  22.0956590  23.3068320  56.1721570  21.9300850  18.6405190  53.2833490
  20.9904520  18.8019150  53.3685950  22.2484110  19.3590870  52.7369480
  28.4513610  23.3223710  63.2612520  27.6232240  23.3916800  62.7862650
  29.0464090  23.9078020  62.7928350  25.9729060  23.9308490  56.7901580
  25.3541480  23.5928040  56.1427880  25.9553510  23.2868250  57.4980770
  25.4155620  20.1093030  64.2067390  25.0026800  20.9346740  64.4607380
  24.6831570  19.5238070  64.0143750  17.5488410  22.8952930  59.0686060
  17.1445410  22.1830180  58.5731960  17.6351530  22.5506170  59.9574100
  18.0170110  26.5820490  61.2325270  17.7198400  25.9765960  60.5533050
  18.9669930  26.6197800  61.1214630  16.2617030  19.6696140  62.8485100
  16.8131620  19.7791480  62.0738350  16.7760540  20.0433740  63.5640330
  26.1055720  30.1552360  64.8948370  25.6286280  30.9624550  64.7020980
  25.4217510  29.5030690  65.0474580  17.1088540  26.3202180  67.8833070
  16.2117070  26.5442150  68.1306470  17.1341410  26.4437120  66.9344470
  24.1493760  23.1695300  53.7974330  24.5887040  22.3317730  53.6512150
  24.8622180  23.8024700  53.8838470  15.9359760  23.1915500  66.4590440
  15.7967530  24.0638300  66.8277840  15.0541120  22.8488310  66.3138380
  22.2589140  28.1091370  57.7655570  22.6985050  28.8515700  57.3510960
  22.1976030  28.3517940  58.6894530  17.7340110  29.1337200  68.6675590
  17.7055540  29.5380150  67.8004020  17.5705080  28.2047560  68.5047190
  27.7310900  14.4238110  52.1115370  27.4183560  14.5164940  53.0114440
  28.4923370  15.0019140  52.0612800  14.2493040  21.7897910  56.5692710
  14.1290640  22.5160000  55.9573980  13.9393930  21.0200820  56.0920620
  29.6854930  29.9164300  69.9639760  30.1614650  30.3947190  70.6428840
  30.3062090  29.8481790  69.2385260  11.8878410  24.9613050  62.3761350
  11.9658830  25.0961820  61.4317070  12.5020090  24.2528940  62.5689470
  13.1326040  26.6613240  58.7867530  12.7254120  26.8027830  57.9321130
  14.0239050  26.3773400  58.5838740  29.0888180  27.1077150  67.1239770
  29.2151240  26.8689030  66.2056950  29.1309560  26.2761690  67.5961850
  22.9504920  30.8105150  65.6934580  23.4649590  30.7213160  66.4957010
  22.1074000  31.1564850  65.9862490  24.9259320  31.0960490  55.1218580
  24.7660460  30.8063430  56.0200410  24.7606030  30.3200620  54.5863810
  17.4047700  30.8759020  56.8990200  17.2290180  29.9594560  56.6858000
  16.5503440  31.2346310  57.1388000  24.6285450  28.6048050  53.6816580
  23.9350610  28.6025340  53.0218860  25.3708310  28.1807370  53.2510750
  24.1935380  30.2310760  57.7565070  24.6492330  29.4500140  58.0703690
  24.5327900  30.9417580  58.3006250  28.9412190  19.1609610  68.0889510
  28.3256460  19.6689280  67.5604970  28.6208610  18.2607940  68.0315450
  11.9437930  26.0027220  64.9155810  12.1068970  25.5332580  64.0975180
  12.4090380  25.4950780  65.5804650  16.7156700  15.1332980  59.9516380
  16.2724850  15.9142520  59.6200900  17.2741690  15.4562870  60.6587320
  21.0026510  18.0001500  65.5551700  20.5405880  18.2084520  66.3671640
  20.6004620  17.1860850  65.2522370  26.0031020  19.2210450  66.6848360
  25.1524610  18.9216200  67.0057430  25.8432810  19.4652460  65.7732180
  23.0980730  20.7212200  68.7847150  23.4234140  19.8875950  68.4449380
  23.8861060  21.2440720  68.9325480  19.8315520  14.7543680  54.8322210
  19.2069700  14.7503550  55.5575520  19.7445640  13.8874640  54.4358180
  18.7532600  15.6780310  61.8105980  19.0504930  16.5843140  61.7298000
  19.3018160  15.1899090  61.1965550  16.5070920  20.2566550  57.6797630
  16.2811840  20.0403720  58.5844250  15.7263450  20.6895010  57.3343600
  23.7368680  20.2629920  56.2788280  23.1377570  20.9865720  56.0951900
  24.2848290  20.2006700  55.4964730  18.9470130  21.1552130  68.3457900
  18.8513730  20.2146860  68.1958300  19.7902110  21.3767200  67.9505970
  22.3433550  18.8993460  58.3091560  22.7363120  19.2165660  57.4960250
  22.7050400  18.0205340  58.4236080  14.0780670  17.5665800  66.4991680
  13.6844060  18.4141010  66.7064460  13.3899070  16.9292170  66.6900320
  20.6525720  17.6500770  69.5688420  19.9624040  17.4572970  70.2034510
  21.3958020  17.9335410  70.1012720  11.3797720  15.4894260  60.5321760
  11.0910770  16.0597120  61.2446740  12.1243480  15.0098710  60.8952990
  11.5667950  19.4314380  51.7424480  11.4842620  20.3745140  51.8839470
  11.2151010  19.2889290  50.8636830  22.9288690  21.4899210  62.4042340
  22.1969810  21.9986020  62.7532440  22.5313030  20.6729190  62.1031120
  19.3666080  18.1653410  60.8094830  19.3702140  17.7243360  59.9599370
  20.2617200  18.4870740  60.9166650  15.2168460  18.0479900  59.7689040
  14.8768510  18.5255130  60.5256090  14.4545780  17.5945020  59.4090140
  19.4286230  19.1665490  53.8001590  19.5499050  19.1251970  54.7487410
  19.0434740  20.0289640  53.6448320  23.3914600  16.9432890  61.8165280
  23.4087340  17.3941540  62.6607130  23.1430180  16.0438530  62.0298720
  18.4407730  21.4766630  53.1984890  17.8724630  21.0284880  52.5720800
  19.1496730  21.8359410  52.6650040  26.8185350  14.3565070  67.6551660
  27.1431120  13.6254730  68.1809640  26.8541860  14.0378710  66.7532650
  13.5176910  25.3778650  67.0751620  13.1331700  24.7372320  67.6734580
  13.8289100  26.0814770  67.6446350  19.6674050  22.2255190  62.5560240
  20.0344180  21.7513760  63.3021580  19.4779110  23.0996760  62.8968580
  12.5314540  16.9698880  58.6853710  12.2461460  16.6054550  59.5232330
  12.4693400  16.2379340  58.0716850  17.4573420  21.2663830  64.8744450
  17.1530490  22.1455810  65.0994810  18.4119880  21.3263620  64.9101890
  15.9855210  25.4724820  55.4711300  15.2117470  24.9322440  55.3110020
  16.7149840  24.9531430  55.1329060  26.7443190  24.4690180  61.2637690
  27.4642310  24.9645470  60.8733800  26.5425010  23.7908070  60.6191560
  22.2053130  15.8628140  55.4067080  21.3917740  15.3641310  55.3312390
  22.0115080  16.7026390  54.9903430  22.1261990  24.5399240  67.1506690
  22.0599300  23.6194910  66.8964280  21.4967130  24.6374680  67.8651330
  24.9201520  20.2347790  53.7029240  25.8081140  20.5465020  53.5280580
  24.8906610  19.3620040  53.3109820  16.0292610  25.1405200  59.1090110
  16.5471280  24.3373460  59.0547000  15.5776630  25.0784340  59.9506940
  20.9162110  26.4071480  54.3817410  21.2577810  27.1513710  53.8860730
  20.0874820  26.7202600  54.7442240  13.5137150  22.1066570  66.0215810
  13.1552090  22.7720420  66.6089150  13.2191710  21.2750120  66.3928430
  16.7150270  22.5650810  68.9055360  16.4150410  22.7107990  68.0083180
  17.4861510  22.0056100  68.8128750  22.0578720  27.3619810  66.9010490
  22.0723260  26.4300770  66.6829400  21.3503820  27.4479570  67.5400260
  27.1915790  21.5459630  53.1709100  27.1079510  21.9773850  52.3205540
  27.9109980  22.0057980  53.6035920  28.2689930  24.0027150  66.2479070
  27.5438120  24.5955930  66.0508460  28.7965390  23.9950690  65.4492440
  28.2203040  28.4001890  55.8991230  27.5779200  27.7457510  56.1734950
  27.8333700  28.8056980  55.1231900  23.7989520  25.7287320  59.7462920
  24.1513340  25.1315450  59.0864290  22.9151850  25.4031550  59.9171170
  19.8852800  26.4885010  57.1533330  20.5723930  27.0354220  57.5340920
  19.0985220  27.0325740  57.1882940  12.0245200  22.1057830  52.6450410
  12.8940050  22.3882630  52.9286330  11.5335520  22.9193700  52.5299220
  19.1880010  23.4931040  56.7658690  19.6442790  24.3036290  56.9918880
  18.8368220  23.1754180  57.5977180  21.4912620  29.0037380  63.9950990
  22.1354840  29.2096760  64.6724410  21.8542060  28.2425780  63.5421840
  15.0891790  13.8368690  57.2381210  14.9606420  13.8286590  58.1866130
  14.2653810  14.1751780  56.8872220  22.7644700  27.0069730  62.7128440
  23.4066930  26.3062890  62.8260610  23.2894050  27.7868170  62.5325330
  24.5382320  27.8064630  65.9164500  24.8738560  28.3931320  66.5942420
  23.6182660  27.6757340  66.1462290  12.3916450  31.3185210  53.2112040
  12.7514090  31.9174550  52.5569310  12.2508790  31.8645100  53.9847070
  12.0885720  15.5959810  66.6987910  11.3744240  15.7956730  67.3040520
  12.5080760  14.8199380  67.0702710  26.1916670  25.2090290  54.0981740
  25.9038370  25.6702980  54.8859620  26.9868840  24.7488060  54.3665960
  12.3758310  29.5840070  67.6854440  12.4849430  28.6434810  67.5449830
  11.7238870  29.8494820  67.0368170  20.3670900  27.8555960  69.0852560
  20.0467770  27.1365200  69.6298250  19.6929260  28.5311030  69.1588620
  18.4085070  28.7016410  54.0285710  18.3995170  29.4346100  53.4130220
  17.4883430  28.4547990  54.1212670  14.0091710  23.9231300  54.7732470
  13.4019660  24.6630200  54.7827770  14.4841060  24.0130660  53.9470670
  23.5824500  18.0882120  64.4489360  23.9505320  17.2677330  64.7768930
  22.7222700  18.1484010  64.8645010  26.9486530  17.0439060  55.2576920
  26.3199690  17.1484730  54.5435150  26.4538450  17.2635840  56.0470800
  21.3944670  28.7644650  52.6910900  21.4956650  28.5608640  51.7612880
  20.4946410  28.5102930  52.8958680  18.9170560  19.3225010  56.6734800
  18.2086710  19.7911350  57.1148410  19.2015040  18.6647020  57.3079990
  20.5426490  20.7421710  64.6727330  21.0411740  21.2167530  65.3379180
  20.6849440  19.8185230  64.8797360  22.9485990  16.0475670  58.1130590
  22.8253770  16.0661800  57.1640100  23.8970550  16.0954610  58.2328990
  20.0362780  31.2830970  57.3858570  20.2904280  31.2452360  56.4637940
  19.0875260  31.1564300  57.3786820  17.1205580  17.6310090  54.0485510
  17.9696110  18.0680240  53.9825700  16.7536850  17.9430350  54.8757570
  27.7493350  16.9589670  65.5155720  27.2466950  17.6995070  65.8549530
  28.5650010  17.3473670  65.1992510  26.0415360  22.2022850  58.9617080
  25.1005500  22.2173080  59.1364770  26.3559430  21.4158810  59.4077380
  16.0197000  23.8842450  52.5221040  16.7860270  23.7723810  53.0846470
  16.0971690  23.1880420  51.8697810  14.7143760  21.3167520  53.2053930
  14.7947350  20.3695030  53.3171330  15.6063510  21.6474400  53.3114590
  28.0440940  29.3731700  60.6371340  28.1688360  30.1962870  61.1095150
  28.9106500  29.1622430  60.2895490  15.5158470  31.4662910  60.3088470
  16.2520950  30.9178370  60.5797040  15.8999390  32.3318920  60.1694460
  12.4003950  27.5336480  56.1829980  11.4743730  27.7757620  56.1735390
  12.8660380  28.3610740  56.0614730  14.5216750  30.6508980  69.4974050
  15.3229480  30.9721030  69.9109450  14.0068570  30.2904560  70.2193960
  18.6260780  30.6393220  52.1314040  19.4189390  30.9282050  51.6795830
  18.1065130  30.2085390  51.4526520  23.3581380  26.7588850  69.4449460
  22.7519540  26.7820450  68.7045210  23.0535490  26.0271890  69.9816710
  24.7881750  30.4869140  68.0558870  25.7403500  30.4027160  68.0059110
  24.6409970  31.1510850  68.7292660  27.6790950  29.8663350  53.5550780
  27.3932460  29.4528490  52.7404960  27.4810500  30.7951060  53.4351300
  12.2414560  23.1382440  68.4410100  12.7453580  22.5589720  69.0126330
  11.5021980  23.4222670  68.9786470  19.1438180  25.8596630  51.9956390
  19.0388820  25.2448980  52.7217770  18.9762400  25.3362520  51.2119400
  19.2952500  24.5453430  67.9745620  18.5298170  25.1138430  67.8900290
  19.4768460  24.2529640  67.0813850  22.3840910  24.9216660  52.5998380
  21.8351010  25.3685960  53.2441120  23.0060170  24.4165910  53.1236050
  26.4375850  26.2758760  68.5320640  27.1785320  26.6134520  68.0288100
  25.6748530  26.4450820  67.9790410  14.2737640  21.2812030  69.3360170
  14.3142980  20.9825900  70.2445400  15.1283140  21.6819640  69.1767690
  18.0516030  23.8807580  54.4963680  18.4732450  23.7147450  55.3395070
  18.1766870  23.0707810  54.0018820  16.2143450  19.8604130  67.3034660
  15.6839910  19.3695080  66.6758000  16.8831520  20.2888330  66.7692590
  20.5643670  22.9045190  51.7440780  21.0849330  22.1894210  51.3781930
  21.2112070  23.5431060  52.0441290  25.1121510  24.3273590  67.0675850
  25.5262530  24.4818670  67.9166270  24.1772510  24.4528810  67.2301630
  25.5843680  21.6669750  69.0715000  26.1664450  20.9122070  68.9835480
  25.7605450  22.1977190  68.2946480  16.7015750  16.8266500  67.3831950
  16.6072620  16.2087250  66.6582820  16.1213140  17.5532790  67.1561860
  19.4677190  15.3839740  64.4159340  19.0194490  15.4064000  63.5704890
  18.8342390  14.9858760  65.0129640  19.8736740  24.2794070  65.0371780
  20.2924850  25.1226800  64.8648020  18.9545370  24.4166110  64.8078560
  22.2100640  22.0110250  66.4209620  22.3296850  21.4151390  67.1604460
  23.0694640  22.0479940  66.0010920  24.5488540  22.5647440  64.9972130
  24.0223760  23.0890060  64.3937270  24.8919880  23.1974830  65.6281860
  16.9474930  19.9540810  51.4421840  16.7463990  19.0908170  51.8035180
  16.7766980  19.8674170  50.5043440  17.7244160  30.5847080  66.1529510
  17.1865250  31.3093140  65.8338210  17.9778120  30.1077420  65.3626850
  18.9769410  18.5531600  67.6785440  19.5669100  18.2447450  68.3663260
  18.1589650  18.0811350  67.8345340  23.7962840  18.1697410  67.9118460
  23.1078360  17.5078950  67.8468450  24.5168860  17.7235680  68.3566920
  24.4263240  14.7649040  53.9708720  24.7065530  13.9216940  54.3268140
  23.6528970  14.9972150  54.4847470  15.7457730  17.0541430  51.4299720
  16.0483630  17.0608860  50.5218870  16.4852320  16.7039290  51.9267380
  20.5806370  31.8198290  66.4116160  20.5065070  32.7233430  66.7188530
  19.6785210  31.5010190  66.3838230  18.9642660  15.9976050  52.4155920
  18.6164660  15.3200040  51.8358370  19.1655430  15.5365560  53.2299310
  21.1291700  30.9856800  54.0342520  22.0242490  31.3241770  54.0561280
  21.1609330  30.2636210  53.4066800  14.7687860  26.3583850  52.2629520
  15.2062730  26.9013520  52.9187100  15.2535590  25.5330800  52.2725860
  11.9833660  29.1472880  59.7149780  12.3136670  28.2793940  59.4828420
  12.4124660  29.3531400  60.5454740  16.5795580  27.4781890  57.3751750
  16.2791120  27.3546860  58.2755660  16.4733070  26.6190480  56.9667480
  12.4723870  30.0143470  62.4531410  12.0354860  30.1944270  63.2855560
  13.0401550  30.7718090  62.3113130  28.1086050  29.5160470  66.7408720
  27.5088040  29.5753030  65.9972640  28.2379950  28.5765450  66.8705570
  29.3487500  27.2578290  52.0778430  28.5180460  27.3254940  52.5485660
  29.5259330  28.1482410  51.7745290  28.8043960  24.0025770  54.5812630
  29.5662870  24.5722420  54.6872320  28.8198330  23.4352970  55.3520940
  12.3048300  22.5263700  58.8120290  11.6497140  22.2575340  58.1679990
  13.1426250  22.4168180  58.3622270  29.8103930  24.8575870  59.4254560
  30.1812760  24.0743190  59.0190530  30.4505860  25.5464970  59.2471860
  26.7937690  26.2412450  64.8384880  25.9797530  26.6709610  65.1010670
  27.2011890  26.8530860  64.2253930  28.8563130  24.2960140  51.7385150
  29.1311970  25.2039020  51.6104370  28.6673870  24.2322670  52.6747140
  25.2538740  17.3204990  53.0338780  25.6723620  17.1335970  52.1935440
  24.9474800  16.4684040  53.3441710  28.7528470  22.2329130  56.7314580
  28.3772070  21.4657060  56.2995870  28.0231590  22.6151830  57.2189510
  13.3424230  22.9116270  63.3523630  13.7097270  22.8243670  64.2319650
  12.7735050  22.1482820  63.2530490  28.1428090  21.3800650  66.3654100
  27.9114180  21.1513400  65.4652050  28.4032640  22.3000200  66.3198990
  12.8940230  19.8225360  67.2582050  11.9996280  19.7892120  67.5975760
  13.4337780  20.0212150  68.0233300  26.5816160  16.6057080  69.1433800
  27.4586340  16.6140480  69.5267800  26.5937000  15.8687920  68.5326150
  11.5186380  19.7362630  54.7545620  10.6150460  19.9992830  54.5797280
  12.0027000  20.0073800  53.9745580  28.0279430  20.4586620  60.0321820
  28.5516910  19.9649270  59.4011990  28.6138850  20.5936980  60.7769390
  28.2069150  20.5426490  63.5541370  27.2571860  20.5090030  63.6686360
  28.3882160  21.4526600  63.3191140  14.0613590  18.7928170  52.6640000
  14.7705290  18.3711390  52.1787280  13.3453530  18.8603400  52.0323350
  13.7087750  14.8467500  51.7042650  14.4315880  15.3876440  52.0223870
  13.9812270  14.5730920  50.8284190  27.5179400  19.7159970  55.9714230
  28.0138520  19.4830840  56.7563110  27.3195470  18.8771810  55.5551870
  13.3979940  14.0973690  61.6065270  14.0456130  13.5471070  61.1660430
  13.8181780  14.3516840  62.4281080  28.9466560  18.3520920  58.5051910
  28.8365840  18.1976960  59.4434180  29.7074150  17.8241860  58.2627320
  27.2932280  14.2915050  64.9634910  27.9304500  14.9049190  65.3294100
  27.4407170  14.3275710  64.0184140  29.8356830  16.1828840  51.7458050
  30.7606140  16.0510020  51.5376340  29.8132620  16.2621660  52.6994500
  29.9095320  16.9539500  54.3714760  29.1146820  16.8884620  54.9007670
  30.1138600  17.8890140  54.3600110  26.8513740  30.9931050  58.3653150
  27.4472810  30.6715620  57.6887570  27.1091890  30.5202870  59.1566420
  13.1511940  14.2529360  64.3490590  12.8026760  14.7093180  65.1148770
  12.8199640  13.3586490  64.4313020  14.7576310  27.4248960  68.5143780
  14.7145940  27.0541870  69.3958240  14.8887320  28.3626530  68.6545600
  18.4582340  28.9808550  64.1153500  18.2173700  29.2483110  63.2284020
  19.3984980  29.1514280  64.1704360  20.6636760  15.4441240  67.8710010
  20.6025650  16.0363070  68.6205420  21.6037140  15.3367200  67.7260270
  23.3011320  15.1011300  67.5102300  23.9151730  15.4190590  66.8483380
  23.8460880  14.6159890  68.1298160  29.7186500  31.0002930  64.9164140
  29.2244780  31.3971800  64.1991270  29.1099790  30.3752140  65.3101420
  13.8232580  13.7805560  67.6241360  14.3715570  13.5993610  66.8607470
  13.8887890  12.9899670  68.1597670  14.5964340  30.3711210  65.6341560
  14.0024660  30.2395910  66.3731600  14.5888180  29.5349350  65.1683660
  24.0419360  13.6643440  63.8371590  23.1679200  13.9978550  63.6344520
  23.9330110  13.1916620  64.6623460  24.9491340  15.8714310  65.2213310
  24.6204700  15.0566070  64.8415040  25.8973640  15.8284120  65.0979000
  27.4025950  31.6426350  62.1950880  26.9428920  32.3942160  61.8208900
  26.7738410  30.9232820  62.1365680  14.2276570  27.7369590  64.5849600
  13.5010630  27.1174880  64.5175550  14.2885720  28.1310200  63.7147680
  17.8321670  29.9514590  61.3699010  18.3486690  29.3401950  60.8447270
  18.4819050  30.4543370  61.8610020  20.5717170  30.8423080  62.1967990
  20.8594980  30.5877380  61.3201000  21.0840390  30.2900440  62.7873560
  21.7894180  14.5813280  62.7764500  21.0065970  15.0558780  63.0561260
  21.4957110  13.6768110  62.6677680  26.3415250  15.2836380  60.8213590
  26.7823340  15.2281480  59.9735190  26.0722840  16.1994390  60.8923770
  28.2053820  14.9151620  58.8322410  28.1442220  13.9712840  58.6853430
  28.9845850  15.0231710  59.3775870  12.5106570  31.0543980  57.7946360
  12.3428610  30.4214660  58.4928250  11.6441080  31.2603380  57.4440550
  13.1334590  14.8860760  55.2978220  13.8913950  14.9989640  54.7242250
  12.6711760  15.7229960  55.2521650  19.6748400  17.0000030  58.2880530
  18.8622910  16.6256920  57.9476410  20.1790040  16.2445110  58.5901720
  24.1773380  13.6642480  59.5263600  24.7802750  14.2362690  60.0012120
  23.4366370  14.2281920  59.3037500  27.3207980  14.0664040  54.8003880
  27.5158610  14.9647490  55.0671310  26.5337850  13.8351120  55.2936830
  14.1169270  29.7477210  55.2396500  13.5916890  30.1285240  54.5358460
  14.0413850  30.3727980  55.9606210  15.5059740  15.4124810  53.8380190
  16.0352500  14.6254610  53.7088140  16.1388060  16.0916000  54.0715720
  17.6997580  15.1499950  56.8925580  17.0700320  14.4487260  57.0595710
  17.1602720  15.9104080  56.6758740  20.6389530  31.7639180  69.5636190
  21.5656840  31.5283450  69.6072150  20.6239960  32.5911180  69.0822220
  17.8253140  14.4283930  69.3278070  17.5437410  14.9317530  68.5638890
  18.2072840  13.6305680  68.9620200  16.7162240  31.6959590  54.1145750
  17.4481060  31.4118870  53.5669640  16.9755910  31.4572870  55.0045130
  15.8777030  27.8124320  54.1192080  15.2485910  28.2809420  54.6677910
  15.9924860  26.9673540  54.5538270  24.4268600  13.8437510  69.9058540
  24.3134050  14.1632120  70.8010060  25.2438340  14.2450020  69.6095820
  27.2067090  30.9909040  69.3877230  27.9992410  30.4958270  69.1803190
  27.5000240  31.6699180  69.9952840  23.3326750  21.8629980  40.2693280
  23.2520800  20.9484590  39.9984990  22.9191170  22.3597050  39.5632990
  15.4810620  23.9528810  43.0278310  14.6495500  23.6977520  43.4274820
  16.0891600  24.0239580  43.7636230  13.8902570  18.9130700  36.8120700
  13.0019270  19.2546670  36.7100580  14.1743760  18.7131020  35.9201530
  11.8535580  21.5136350  42.6960400  12.4251690  20.7458550  42.6964040
  11.8537120  21.8125110  41.7867010  13.0960450  16.9220710  44.4829330
  12.9163290  16.0246460  44.7632090  12.6940530  17.4692580  45.1576280
  21.9358950  19.1236570  42.3841640  22.3123770  18.2508450  42.2715310
  21.8378460  19.4595270  41.4932080  16.0663960  17.4962200  37.8459080
  16.1730710  18.3965930  38.1527840  15.1556320  17.4480170  37.5553730
  25.7183070  16.6187010  39.3169980  26.5392690  16.1283580  39.3595460
  25.7517150  17.2084670  40.0701820  13.7147120  19.4181210  43.0911670
  14.3957230  19.6819580  43.7099070  13.3995170  18.5782080  43.4249680
  17.9071690  20.4648570  42.1784260  18.4149910  20.9629540  42.8189280
  18.4384930  19.6883770  42.0023620  30.0082620  18.6353760  45.8813610
  29.3034790  19.0235470  45.3628720  30.2740540  19.3304050  46.4834540
  16.1907790  15.1047130  46.4447680  16.1926230  15.6219520  45.6393580
  15.3612100  14.6277310  46.4217610  17.4410640  24.7442310  44.6221180
  17.1080020  25.3711230  45.2642250  17.6177320  25.2704190  43.8422850
  25.9544550  18.5587390  42.0897520  25.2500120  18.8472280  42.6700630
  26.3156710  19.3687500  41.7297080  15.8723120  16.8157090  44.4518130
  16.2139930  17.6599140  44.1572000  14.9338930  16.9640830  44.5683470
  11.9462080  25.9022970  35.3177210  11.5690060  26.3910070  34.5862110
  12.2035150  26.5748250  35.9483740  29.0231470  18.0042180  42.4806730
  28.0756380  18.0381160  42.6122160  29.3481460  18.8181130  42.8656090
  19.5551010  14.3039360  40.7762720  19.8625990  13.7486250  40.0598220
  18.6251710  14.4383820  40.5935710  21.9431770  22.3688190  37.5122840
  21.0161050  22.3025570  37.7411310  22.0956590  23.3068320  37.3978080
  25.9729060  23.9308490  38.0158090  25.3541480  23.5928040  37.3684390
  25.9553510  23.2868250  38.7237280  25.4155620  20.1093030  45.4323900
  25.0026800  20.9346740  45.6863890  24.6831570  19.5238070  45.2400260
  17.5488410  22.8952930  40.2942570  17.1445410  22.1830180  39.7988470
  17.6351530  22.5506170  41.1830610  16.2617030  19.6696140  44.0741610
  16.8131620  19.7791480  43.2994860  16.7760540  20.0433740  44.7896840
  17.1088540  26.3202180  49.1089580  16.2117070  26.5442150  49.3562980
  17.1341410  26.4437120  48.1600980  15.9359760  23.1915500  47.6846950
  15.7967530  24.0638300  48.0534350  15.0541120  22.8488310  47.5394890
  17.7340110  29.1337200  49.8932100  17.7055540  29.5380150  49.0260530
  17.5705080  28.2047560  49.7303700  27.7310900  14.4238110  33.3371880
  27.4183560  14.5164940  34.2370950  28.4923370  15.0019140  33.2869310
  14.2493040  21.7897910  37.7949220  14.1290640  22.5160000  37.1830490
  13.9393930  21.0200820  37.3177130  11.8878410  24.9613050  43.6017860
  11.9658830  25.0961820  42.6573580  12.5020090  24.2528940  43.7945980
  13.1326040  26.6613240  40.0124040  12.7254120  26.8027830  39.1577640
  14.0239050  26.3773400  39.8095250  28.9412190  19.1609610  49.3146020
  28.3256460  19.6689280  48.7861480  28.6208610  18.2607940  49.2571960
  11.9437930  26.0027220  46.1412320  12.1068970  25.5332580  45.3231690
  12.4090380  25.4950780  46.8061160  16.7156700  15.1332980  41.1772890
  16.2724850  15.9142520  40.8457410  17.2741690  15.4562870  41.8843830
  21.0026510  18.0001500  46.7808210  20.5405880  18.2084520  47.5928150
  20.6004620  17.1860850  46.4778880  26.0031020  19.2210450  47.9104870
  25.1524610  18.9216200  48.2313940  25.8432810  19.4652460  46.9988690
  23.0980730  20.7212200  50.0103660  23.4234140  19.8875950  49.6705890
  23.8861060  21.2440720  50.1581990  19.8315520  14.7543680  36.0578720
  19.2069700  14.7503550  36.7832030  19.7445640  13.8874640  35.6614690
  18.7532600  15.6780310  43.0362490  19.0504930  16.5843140  42.9554510
  19.3018160  15.1899090  42.4222060  16.5070920  20.2566550  38.9054140
  16.2811840  20.0403720  39.8100760  15.7263450  20.6895010  38.5600110
  23.7368680  20.2629920  37.5044790  23.1377570  20.9865720  37.3208410
  24.2848290  20.2006700  36.7221240  18.9470130  21.1552130  49.5714410
  18.8513730  20.2146860  49.4214810  19.7902110  21.3767200  49.1762480
  22.3433550  18.8993460  39.5348070  22.7363120  19.2165660  38.7216760
  22.7050400  18.0205340  39.6492590  14.0780670  17.5665800  47.7248190
  13.6844060  18.4141010  47.9320970  13.3899070  16.9292170  47.9156830
  20.6525720  17.6500770  50.7944930  19.9624040  17.4572970  51.4291020
  21.3958020  17.9335410  51.3269230  11.3797720  15.4894260  41.7578270
  11.0910770  16.0597120  42.4703250  12.1243480  15.0098710  42.1209500
  11.5667950  19.4314380  32.9680990  11.4842620  20.3745140  33.1095980
  11.2151010  19.2889290  32.0893340  22.9288690  21.4899210  43.6298850
  22.1969810  21.9986020  43.9788950  22.5313030  20.6729190  43.3287630
  19.3666080  18.1653410  42.0351340  19.3702140  17.7243360  41.1855880
  20.2617200  18.4870740  42.1423160  15.2168460  18.0479900  40.9945550
  14.8768510  18.5255130  41.7512600  14.4545780  17.5945020  40.6346650
  19.4286230  19.1665490  35.0258100  19.5499050  19.1251970  35.9743920
  19.0434740  20.0289640  34.8704830  23.3914600  16.9432890  43.0421790
  23.4087340  17.3941540  43.8863640  23.1430180  16.0438530  43.2555230
  18.4407730  21.4766630  34.4241400  17.8724630  21.0284880  33.7977310
  19.1496730  21.8359410  33.8906550  26.8185350  14.3565070  48.8808170
  27.1431120  13.6254730  49.4066150  26.8541860  14.0378710  47.9789160
  13.5176910  25.3778650  48.3008130  13.1331700  24.7372320  48.8991090
  13.8289100  26.0814770  48.8702860  19.6674050  22.2255190  43.7816750
  20.0344180  21.7513760  44.5278090  19.4779110  23.0996760  44.1225090
  12.5314540  16.9698880  39.9110220  12.2461460  16.6054550  40.7488840
  12.4693400  16.2379340  39.2973360  17.4573420  21.2663830  46.1000960
  17.1530490  22.1455810  46.3251320  18.4119880  21.3263620  46.1358400
  15.9855210  25.4724820  36.6967810  15.2117470  24.9322440  36.5366530
  16.7149840  24.9531430  36.3585570  22.2053130  15.8628140  36.6323590
  21.3917740  15.3641310  36.5568900  22.0115080  16.7026390  36.2159940
  22.1261990  24.5399240  48.3763200  22.0599300  23.6194910  48.1220790
  21.4967130  24.6374680  49.0907840  16.0292610  25.1405200  40.3346620
  16.5471280  24.3373460  40.2803510  15.5776630  25.0784340  41.1763450
  13.5137150  22.1066570  47.2472320  13.1552090  22.7720420  47.8345660
  13.2191710  21.2750120  47.6184940  16.7150270  22.5650810  50.1311870
  16.4150410  22.7107990  49.2339690  17.4861510  22.0056100  50.0385260
  12.0245200  22.1057830  33.8706920  12.8940050  22.3882630  34.1542840
  11.5335520  22.9193700  33.7555730  19.1880010  23.4931040  37.9915200
  19.6442790  24.3036290  38.2175390  18.8368220  23.1754180  38.8233690
  15.0891790  13.8368690  38.4637720  14.9606420  13.8286590  39.4122640
  14.2653810  14.1751780  38.1128730  12.3916450  31.3185210  34.4368550
  12.7514090  31.9174550  33.7825820  12.2508790  31.8645100  35.2103580
  12.0885720  15.5959810  47.9244420  11.3744240  15.7956730  48.5297030
  12.5080760  14.8199380  48.2959220  12.3758310  29.5840070  48.9110950
  12.4849430  28.6434810  48.7706340  11.7238870  29.8494820  48.2624680
  20.3670900  27.8555960  50.3109070  20.0467770  27.1365200  50.8554760
  19.6929260  28.5311030  50.3845130  14.0091710  23.9231300  35.9988980
  13.4019660  24.6630200  36.0084280  14.4841060  24.0130660  35.1727180
  23.5824500  18.0882120  45.6745870  23.9505320  17.2677330  46.0025440
  22.7222700  18.1484010  46.0901520  26.9486530  17.0439060  36.4833430
  26.3199690  17.1484730  35.7691660  26.4538450  17.2635840  37.2727310
  18.9170560  19.3225010  37.8991310  18.2086710  19.7911350  38.3404920
  19.2015040  18.6647020  38.5336500  20.5426490  20.7421710  45.8983840
  21.0411740  21.2167530  46.5635690  20.6849440  19.8185230  46.1053870
  22.9485990  16.0475670  39.3387100  22.8253770  16.0661800  38.3896610
  23.8970550  16.0954610  39.4585500  17.1205580  17.6310090  35.2742020
  17.9696110  18.0680240  35.2082210  16.7536850  17.9430350  36.1014080
  27.7493350  16.9589670  46.7412230  27.2466950  17.6995070  47.0806040
  28.5650010  17.3473670  46.4249020  26.0415360  22.2022850  40.1873590
  25.1005500  22.2173080  40.3621280  26.3559430  21.4158810  40.6333890
  16.0197000  23.8842450  33.7477550  16.7860270  23.7723810  34.3102980
  16.0971690  23.1880420  33.0954320  14.7143760  21.3167520  34.4310440
  14.7947350  20.3695030  34.5427840  15.6063510  21.6474400  34.5371100
  12.4003950  27.5336480  37.4086490  11.4743730  27.7757620  37.3991900
  12.8660380  28.3610740  37.2871240  14.5216750  30.6508980  50.7230560
  15.3229480  30.9721030  51.1365960  14.0068570  30.2904560  51.4450470
  12.2414560  23.1382440  49.6666610  12.7453580  22.5589720  50.2382840
  11.5021980  23.4222670  50.2042980  19.1438180  25.8596630  33.2212900
  19.0388820  25.2448980  33.9474280  18.9762400  25.3362520  32.4375910
  19.2952500  24.5453430  49.2002130  18.5298170  25.1138430  49.1156800
  19.4768460  24.2529640  48.3070360  14.2737640  21.2812030  50.5616680
  14.3142980  20.9825900  51.4701910  15.1283140  21.6819640  50.4024200
  18.0516030  23.8807580  35.7220190  18.4732450  23.7147450  36.5651580
  18.1766870  23.0707810  35.2275330  16.2143450  19.8604130  48.5291170
  15.6839910  19.3695080  47.9014510  16.8831520  20.2888330  47.9949100
  20.5643670  22.9045190  32.9697290  21.0849330  22.1894210  32.6038440
  21.2112070  23.5431060  33.2697800  25.5843680  21.6669750  50.2971510
  26.1664450  20.9122070  50.2091990  25.7605450  22.1977190  49.5202990
  16.7015750  16.8266500  48.6088460  16.6072620  16.2087250  47.8839330
  16.1213140  17.5532790  48.3818370  19.4677190  15.3839740  45.6415850
  19.0194490  15.4064000  44.7961400  18.8342390  14.9858760  46.2386150
  19.8736740  24.2794070  46.2628290  20.2924850  25.1226800  46.0904530
  18.9545370  24.4166110  46.0335070  22.2100640  22.0110250  47.6466130
  22.3296850  21.4151390  48.3860970  23.0694640  22.0479940  47.2267430
  24.5488540  22.5647440  46.2228640  24.0223760  23.0890060  45.6193780
  24.8919880  23.1974830  46.8538370  16.9474930  19.9540810  32.6678350
  16.7463990  19.0908170  33.0291690  16.7766980  19.8674170  31.7299950
  18.9769410  18.5531600  48.9041950  19.5669100  18.2447450  49.5919770
  18.1589650  18.0811350  49.0601850  23.7962840  18.1697410  49.1374970
  23.1078360  17.5078950  49.0724960  24.5168860  17.7235680  49.5823430
  24.4263240  14.7649040  35.1965230  24.7065530  13.9216940  35.5524650
  23.6528970  14.9972150  35.7103980  15.7457730  17.0541430  32.6556230
  16.0483630  17.0608860  31.7475380  16.4852320  16.7039290  33.1523890
  20.5806370  31.8198290  47.6372670  20.5065070  32.7233430  47.9445040
  19.6785210  31.5010190  47.6094740  18.9642660  15.9976050  33.6412430
  18.6164660  15.3200040  33.0614880  19.1655430  15.5365560  34.4555820
  14.7687860  26.3583850  33.4886030  15.2062730  26.9013520  34.1443610
  15.2535590  25.5330800  33.4982370  12.3048300  22.5263700  40.0376800
  11.6497140  22.2575340  39.3936500  13.1426250  22.4168180  39.5878780
  28.7528470  22.2329130  37.9571090  28.3772070  21.4657060  37.5252380
  28.0231590  22.6151830  38.4446020  13.3424230  22.9116270  44.5780140
  13.7097270  22.8243670  45.4576160  12.7735050  22.1482820  44.4787000
  28.1428090  21.3800650  47.5910610  27.9114180  21.1513400  46.6908560
  28.4032640  22.3000200  47.5455500  12.8940230  19.8225360  48.4838560
  11.9996280  19.7892120  48.8232270  13.4337780  20.0212150  49.2489810
  26.5816160  16.6057080  50.3690310  27.4586340  16.6140480  50.7524310
  26.5937000  15.8687920  49.7582660  11.5186380  19.7362630  35.9802130
  10.6150460  19.9992830  35.8053790  12.0027000  20.0073800  35.2002090
  28.0279430  20.4586620  41.2578330  28.5516910  19.9649270  40.6268500
  28.6138850  20.5936980  42.0025900  28.2069150  20.5426490  44.7797880
  27.2571860  20.5090030  44.8942870  28.3882160  21.4526600  44.5447650
  14.0613590  18.7928170  33.8896510  14.7705290  18.3711390  33.4043790
  13.3453530  18.8603400  33.2579860  13.7087750  14.8467500  32.9299160
  14.4315880  15.3876440  33.2480380  13.9812270  14.5730920  32.0540700
  27.5179400  19.7159970  37.1970740  28.0138520  19.4830840  37.9819620
  27.3195470  18.8771810  36.7808380  13.3979940  14.0973690  42.8321780
  14.0456130  13.5471070  42.3916940  13.8181780  14.3516840  43.6537590
  28.9466560  18.3520920  39.7308420  28.8365840  18.1976960  40.6690690
  29.7074150  17.8241860  39.4883830  27.2932280  14.2915050  46.1891420
  27.9304500  14.9049190  46.5550610  27.4407170  14.3275710  45.2440650
  13.1511940  14.2529360  45.5747100  12.8026760  14.7093180  46.3405280
  12.8199640  13.3586490  45.6569530  14.7576310  27.4248960  49.7400290
  14.7145940  27.0541870  50.6214750  14.8887320  28.3626530  49.8802110
  20.6636760  15.4441240  49.0966520  20.6025650  16.0363070  49.8461930
  21.6037140  15.3367200  48.9516780  23.3011320  15.1011300  48.7358810
  23.9151730  15.4190590  48.0739890  23.8460880  14.6159890  49.3554670
  13.8232580  13.7805560  48.8497870  14.3715570  13.5993610  48.0863980
  13.8887890  12.9899670  49.3854180  24.0419360  13.6643440  45.0628100
  23.1679200  13.9978550  44.8601030  23.9330110  13.1916620  45.8879970
  24.9491340  15.8714310  46.4469820  24.6204700  15.0566070  46.0671550
  25.8973640  15.8284120  46.3235510  21.7894180  14.5813280  44.0021010
  21.0065970  15.0558780  44.2817770  21.4957110  13.6768110  43.8934190
  26.3415250  15.2836380  42.0470100  26.7823340  15.2281480  41.1991700
  26.0722840  16.1994390  42.1180280  28.2053820  14.9151620  40.0578920
  28.1442220  13.9712840  39.9109940  28.9845850  15.0231710  40.6032380
  13.1334590  14.8860760  36.5234730  13.8913950  14.9989640  35.9498760
  12.6711760  15.7229960  36.4778160  19.6748400  17.0000030  39.5137040
  18.8622910  16.6256920  39.1732920  20.1790040  16.2445110  39.8158230
  24.1773380  13.6642480  40.7520110  24.7802750  14.2362690  41.2268630
  23.4366370  14.2281920  40.5294010  27.3207980  14.0664040  36.0260390
  27.5158610  14.9647490  36.2927820  26.5337850  13.8351120  36.5193340
  14.1169270  29.7477210  36.4653010  13.5916890  30.1285240  35.7614970
  14.0413850  30.3727980  37.1862720  15.5059740  15.4124810  35.0636700
  16.0352500  14.6254610  34.9344650  16.1388060  16.0916000  35.2972230
  17.6997580  15.1499950  38.1182090  17.0700320  14.4487260  38.2852220
  17.1602720  15.9104080  37.9015250  20.6389530  31.7639180  50.7892700
  21.5656840  31.5283450  50.8328660  20.6239960  32.5911180  50.3078730
  17.8253140  14.4283930  50.5534580  17.5437410  14.9317530  49.7895400
  18.2072840  13.6305680  50.1876710  15.8777030  27.8124320  35.3448590
  15.2485910  28.2809420  35.8934420  15.9924860  26.9673540  35.7794780
  24.4268600  13.8437510  51.1315050  24.3134050  14.1632120  52.0266570
  25.2438340  14.2450020  50.8352330  27.2067090  30.9909040  50.6133740
  27.9992410  30.4958270  50.4059700  27.5000240  31.6699180  51.2209350
  23.3326750  21.8629980  21.4949790  23.2520800  20.9484590  21.2241500
  22.9191170  22.3597050  20.7889500  21.4644790  23.6409000  23.3759060
  20.6886890  23.1609440  23.6657630  22.1157720  22.9614650  23.2015220
  15.4810620  23.9528810  24.2534820  14.6495500  23.6977520  24.6531330
  16.0891600  24.0239580  24.9892740  15.4611880  27.9868900  24.4492840
  15.7639920  27.0966640  24.2703060  16.2055470  28.5439120  24.2215090
  13.8902570  18.9130700  18.0377210  13.0019270  19.2546670  17.9357090
  14.1743760  18.7131020  17.1458040  11.8535580  21.5136350  23.9216910
  12.4251690  20.7458550  23.9220550  11.8537120  21.8125110  23.0123520
  13.0960450  16.9220710  25.7085840  12.9163290  16.0246460  25.9888600
  12.6940530  17.4692580  26.3832790  21.9358950  19.1236570  23.6098150
  22.3123770  18.2508450  23.4971820  21.8378460  19.4595270  22.7188590
  16.0663960  17.4962200  19.0715590  16.1730710  18.3965930  19.3784350
  15.1556320  17.4480170  18.7810240  25.7183070  16.6187010  20.5426490
  26.5392690  16.1283580  20.5851970  25.7517150  17.2084670  21.2958330
  13.7147120  19.4181210  24.3168180  14.3957230  19.6819580  24.9355580
  13.3995170  18.5782080  24.6506190  17.9071690  20.4648570  23.4040770
  18.4149910  20.9629540  24.0445790  18.4384930  19.6883770  23.2280130
  16.1907790  15.1047130  27.6704190  16.1926230  15.6219520  26.8650090
  15.3612100  14.6277310  27.6474120  22.5778880  25.2166440  19.1694090
  21.9596150  25.6815890  18.6056810  23.0902130  25.9093920  19.5863600
  17.4410640  24.7442310  25.8477690  17.1080020  25.3711230  26.4898760
  17.6177320  25.2704190  25.0679360  25.9544550  18.5587390  23.3154030
  25.2500120  18.8472280  23.8957140  26.3156710  19.3687500  22.9553590
  15.8723120  16.8157090  25.6774640  16.2139930  17.6599140  25.3828510
  14.9338930  16.9640830  25.7939980  16.6529740  26.7123110  27.6626870
  17.2703740  27.3874190  27.3811320  15.7922860  27.1211090  27.5714370
  11.9462080  25.9022970  16.5433720  11.5690060  26.3910070  15.8118620
  12.2035150  26.5748250  17.1740250  29.0231470  18.0042180  23.7063240
  28.0756380  18.0381160  23.8378670  29.3481460  18.8181130  24.0912600
  19.5551010  14.3039360  22.0019230  19.8625990  13.7486250  21.2854730
  18.6251710  14.4383820  21.8192220  21.9431770  22.3688190  18.7379350
  21.0161050  22.3025570  18.9667820  22.0956590  23.3068320  18.6234590
  21.9300850  18.6405190  15.7346510  20.9904520  18.8019150  15.8198970
  22.2484110  19.3590870  15.1882500  25.9729060  23.9308490  19.2414600
  25.3541480  23.5928040  18.5940900  25.9553510  23.2868250  19.9493790
  17.5488410  22.8952930  21.5199080  17.1445410  22.1830180  21.0244980
  17.6351530  22.5506170  22.4087120  18.0170110  26.5820490  23.6838290
  17.7198400  25.9765960  23.0046070  18.9669930  26.6197800  23.5727650
  16.2617030  19.6696140  25.2998120  16.8131620  19.7791480  24.5251370
  16.7760540  20.0433740  26.0153350  17.1088540  26.3202180  30.3346090
  16.2117070  26.5442150  30.5819490  17.1341410  26.4437120  29.3857490
  24.1493760  23.1695300  16.2487350  24.5887040  22.3317730  16.1025170
  24.8622180  23.8024700  16.3351490  15.9359760  23.1915500  28.9103460
  15.7967530  24.0638300  29.2790860  15.0541120  22.8488310  28.7651400
  17.7340110  29.1337200  31.1188610  17.7055540  29.5380150  30.2517040
  17.5705080  28.2047560  30.9560210  27.7310900  14.4238110  14.5628390
  27.4183560  14.5164940  15.4627460  28.4923370  15.0019140  14.5125820
  14.2493040  21.7897910  19.0205730  14.1290640  22.5160000  18.4087000
  13.9393930  21.0200820  18.5433640  11.8878410  24.9613050  24.8274370
  11.9658830  25.0961820  23.8830090  12.5020090  24.2528940  25.0202490
  13.1326040  26.6613240  21.2380550  12.7254120  26.8027830  20.3834150
  14.0239050  26.3773400  21.0351760  11.9437930  26.0027220  27.3668830
  12.1068970  25.5332580  26.5488200  12.4090380  25.4950780  28.0317670
  16.7156700  15.1332980  22.4029400  16.2724850  15.9142520  22.0713920
  17.2741690  15.4562870  23.1100340  21.0026510  18.0001500  28.0064720
  20.5405880  18.2084520  28.8184660  20.6004620  17.1860850  27.7035390
  19.8315520  14.7543680  17.2835230  19.2069700  14.7503550  18.0088540
  19.7445640  13.8874640  16.8871200  18.7532600  15.6780310  24.2619000
  19.0504930  16.5843140  24.1811020  19.3018160  15.1899090  23.6478570
  16.5070920  20.2566550  20.1310650  16.2811840  20.0403720  21.0357270
  15.7263450  20.6895010  19.7856620  23.7368680  20.2629920  18.7301300
  23.1377570  20.9865720  18.5464920  24.2848290  20.2006700  17.9477750
  18.9470130  21.1552130  30.7970920  18.8513730  20.2146860  30.6471320
  19.7902110  21.3767200  30.4018990  22.3433550  18.8993460  20.7604580
  22.7363120  19.2165660  19.9473270  22.7050400  18.0205340  20.8749100
  14.0780670  17.5665800  28.9504700  13.6844060  18.4141010  29.1577480
  13.3899070  16.9292170  29.1413340  20.6525720  17.6500770  32.0201440
  19.9624040  17.4572970  32.6547530  21.3958020  17.9335410  32.5525740
  11.3797720  15.4894260  22.9834780  11.0910770  16.0597120  23.6959760
  12.1243480  15.0098710  23.3466010  11.5667950  19.4314380  14.1937500
  11.4842620  20.3745140  14.3352490  11.2151010  19.2889290  13.3149850
  22.9288690  21.4899210  24.8555360  22.1969810  21.9986020  25.2045460
  22.5313030  20.6729190  24.5544140  19.3666080  18.1653410  23.2607850
  19.3702140  17.7243360  22.4112390  20.2617200  18.4870740  23.3679670
  15.2168460  18.0479900  22.2202060  14.8768510  18.5255130  22.9769110
  14.4545780  17.5945020  21.8603160  19.4286230  19.1665490  16.2514610
  19.5499050  19.1251970  17.2000430  19.0434740  20.0289640  16.0961340
  23.3914600  16.9432890  24.2678300  23.4087340  17.3941540  25.1120150
  23.1430180  16.0438530  24.4811740  18.4407730  21.4766630  15.6497910
  17.8724630  21.0284880  15.0233820  19.1496730  21.8359410  15.1163060
  26.8185350  14.3565070  30.1064680  27.1431120  13.6254730  30.6322660
  26.8541860  14.0378710  29.2045670  13.5176910  25.3778650  29.5264640
  13.1331700  24.7372320  30.1247600  13.8289100  26.0814770  30.0959370
  19.6674050  22.2255190  25.0073260  20.0344180  21.7513760  25.7534600
  19.4779110  23.0996760  25.3481600  12.5314540  16.9698880  21.1366730
  12.2461460  16.6054550  21.9745350  12.4693400  16.2379340  20.5229870
  17.4573420  21.2663830  27.3257470  17.1530490  22.1455810  27.5507830
  18.4119880  21.3263620  27.3614910  15.9855210  25.4724820  17.9224320
  15.2117470  24.9322440  17.7623040  16.7149840  24.9531430  17.5842080
  26.7443190  24.4690180  23.7150710  27.4642310  24.9645470  23.3246820
  26.5425010  23.7908070  23.0704580  22.2053130  15.8628140  17.8580100
  21.3917740  15.3641310  17.7825410  22.0115080  16.7026390  17.4416450
  24.9201520  20.2347790  16.1542260  25.8081140  20.5465020  15.9793600
  24.8906610  19.3620040  15.7622840  16.0292610  25.1405200  21.5603130
  16.5471280  24.3373460  21.5060020  15.5776630  25.0784340  22.4019960
  20.9162110  26.4071480  16.8330430  21.2577810  27.1513710  16.3373750
  20.0874820  26.7202600  17.1955260  13.5137150  22.1066570  28.4728830
  13.1552090  22.7720420  29.0602170  13.2191710  21.2750120  28.8441450
  16.7150270  22.5650810  31.3568380  16.4150410  22.7107990  30.4596200
  17.4861510  22.0056100  31.2641770  22.0578720  27.3619810  29.3523510
  22.0723260  26.4300770  29.1342420  21.3503820  27.4479570  29.9913280
  27.1915790  21.5459630  15.6222120  27.1079510  21.9773850  14.7718560
  27.9109980  22.0057980  16.0548940  23.7989520  25.7287320  22.1975940
  24.1513340  25.1315450  21.5377310  22.9151850  25.4031550  22.3684190
  12.0245200  22.1057830  15.0963430  12.8940050  22.3882630  15.3799350
  11.5335520  22.9193700  14.9812240  19.1880010  23.4931040  19.2171710
  19.6442790  24.3036290  19.4431900  18.8368220  23.1754180  20.0490200
  21.4912620  29.0037380  26.4464010  22.1354840  29.2096760  27.1237430
  21.8542060  28.2425780  25.9934860  15.0891790  13.8368690  19.6894230
  14.9606420  13.8286590  20.6379150  14.2653810  14.1751780  19.3385240
  22.7644700  27.0069730  25.1641460  23.4066930  26.3062890  25.2773630
  23.2894050  27.7868170  24.9838350  12.3916450  31.3185210  15.6625060
  12.7514090  31.9174550  15.0082330  12.2508790  31.8645100  16.4360090
  12.0885720  15.5959810  29.1500930  11.3744240  15.7956730  29.7553540
  12.5080760  14.8199380  29.5215730  26.1916670  25.2090290  16.5494760
  25.9038370  25.6702980  17.3372640  26.9868840  24.7488060  16.8178980
  12.3758310  29.5840070  30.1367460  12.4849430  28.6434810  29.9962850
  11.7238870  29.8494820  29.4881190  20.3670900  27.8555960  31.5365580
  20.0467770  27.1365200  32.0811270  19.6929260  28.5311030  31.6101640
  18.4085070  28.7016410  16.4798730  18.3995170  29.4346100  15.8643240
  17.4883430  28.4547990  16.5725690  14.0091710  23.9231300  17.2245490
  13.4019660  24.6630200  17.2340790  14.4841060  24.0130660  16.3983690
  23.5824500  18.0882120  26.9002380  23.9505320  17.2677330  27.2281950
  22.7222700  18.1484010  27.3158030  26.9486530  17.0439060  17.7089940
  26.3199690  17.1484730  16.9948170  26.4538450  17.2635840  18.4983820
  21.3944670  28.7644650  15.1423920  21.4956650  28.5608640  14.2125900
  20.4946410  28.5102930  15.3471700  18.9170560  19.3225010  19.1247820
  18.2086710  19.7911350  19.5661430  19.2015040  18.6647020  19.7593010
  20.5426490  20.7421710  27.1240350  21.0411740  21.2167530  27.7892200
  20.6849440  19.8185230  27.3310380  22.9485990  16.0475670  20.5643610
  22.8253770  16.0661800  19.6153120  23.8970550  16.0954610  20.6842010
  17.1205580  17.6310090  16.4998530  17.9696110  18.0680240  16.4338720
  16.7536850  17.9430350  17.3270590  27.7493350  16.9589670  27.9668740
  27.2466950  17.6995070  28.3062550  28.5650010  17.3473670  27.6505530
  26.0415360  22.2022850  21.4130100  25.1005500  22.2173080  21.5877790
  26.3559430  21.4158810  21.8590400  16.0197000  23.8842450  14.9734060
  16.7860270  23.7723810  15.5359490  16.0971690  23.1880420  14.3210830
  14.7143760  21.3167520  15.6566950  14.7947350  20.3695030  15.7684350
  15.6063510  21.6474400  15.7627610  15.5158470  31.4662910  22.7601490
  16.2520950  30.9178370  23.0310060  15.8999390  32.3318920  22.6207480
  12.4003950  27.5336480  18.6343000  11.4743730  27.7757620  18.6248410
  12.8660380  28.3610740  18.5127750  14.5216750  30.6508980  31.9487070
  15.3229480  30.9721030  32.3622470  14.0068570  30.2904560  32.6706980
  18.6260780  30.6393220  14.5827060  19.4189390  30.9282050  14.1308850
  18.1065130  30.2085390  13.9039540  12.2414560  23.1382440  30.8923120
  12.7453580  22.5589720  31.4639350  11.5021980  23.4222670  31.4299490
  19.1438180  25.8596630  14.4469410  19.0388820  25.2448980  15.1730790
  18.9762400  25.3362520  13.6632420  19.2952500  24.5453430  30.4258640
  18.5298170  25.1138430  30.3413310  19.4768460  24.2529640  29.5326870
  22.3840910  24.9216660  15.0511400  21.8351010  25.3685960  15.6954140
  23.0060170  24.4165910  15.5749070  14.2737640  21.2812030  31.7873190
  14.3142980  20.9825900  32.6958420  15.1283140  21.6819640  31.6280710
  18.0516030  23.8807580  16.9476700  18.4732450  23.7147450  17.7908090
  18.1766870  23.0707810  16.4531840  16.2143450  19.8604130  29.7547680
  15.6839910  19.3695080  29.1271020  16.8831520  20.2888330  29.2205610
  20.5643670  22.9045190  14.1953800  21.0849330  22.1894210  13.8294950
  21.2112070  23.5431060  14.4954310  16.7015750  16.8266500  29.8344970
  16.6072620  16.2087250  29.1095840  16.1213140  17.5532790  29.6074880
  19.4677190  15.3839740  26.8672360  19.0194490  15.4064000  26.0217910
  18.8342390  14.9858760  27.4642660  19.8736740  24.2794070  27.4884800
  20.2924850  25.1226800  27.3161040  18.9545370  24.4166110  27.2591580
  16.9474930  19.9540810  13.8934860  16.7463990  19.0908170  14.2548200
  16.7766980  19.8674170  12.9556460  17.7244160  30.5847080  28.6042530
  17.1865250  31.3093140  28.2851230  17.9778120  30.1077420  27.8139870
  18.9769410  18.5531600  30.1298460  19.5669100  18.2447450  30.8176280
  18.1589650  18.0811350  30.2858360  24.4263240  14.7649040  16.4221740
  24.7065530  13.9216940  16.7781160  23.6528970  14.9972150  16.9360490
  15.7457730  17.0541430  13.8812740  16.0483630  17.0608860  12.9731890
  16.4852320  16.7039290  14.3780400  20.5806370  31.8198290  28.8629180
  20.5065070  32.7233430  29.1701550  19.6785210  31.5010190  28.8351250
  18.9642660  15.9976050  14.8668940  18.6164660  15.3200040  14.2871390
  19.1655430  15.5365560  15.6812330  14.7687860  26.3583850  14.7142540
  15.2062730  26.9013520  15.3700120  15.2535590  25.5330800  14.7238880
  11.9833660  29.1472880  22.1662800  12.3136670  28.2793940  21.9341440
  12.4124660  29.3531400  22.9967760  16.5795580  27.4781890  19.8264770
  16.2791120  27.3546860  20.7268680  16.4733070  26.6190480  19.4180500
  12.4723870  30.0143470  24.9044430  12.0354860  30.1944270  25.7368580
  13.0401550  30.7718090  24.7626150  29.3487500  27.2578290  14.5291450
  28.5180460  27.3254940  14.9998680  29.5259330  28.1482410  14.2258310
  28.8043960  24.0025770  17.0325650  29.5662870  24.5722420  17.1385340
  28.8198330  23.4352970  17.8033960  12.3048300  22.5263700  21.2633310
  11.6497140  22.2575340  20.6193010  13.1426250  22.4168180  20.8135290
  29.8103930  24.8575870  21.8767580  30.1812760  24.0743190  21.4703550
  30.4505860  25.5464970  21.6984880  28.8563130  24.2960140  14.1898170
  29.1311970  25.2039020  14.0617390  28.6673870  24.2322670  15.1260160
  25.2538740  17.3204990  15.4851800  25.6723620  17.1335970  14.6448460
  24.9474800  16.4684040  15.7954730  28.7528470  22.2329130  19.1827600
  28.3772070  21.4657060  18.7508890  28.0231590  22.6151830  19.6702530
  13.3424230  22.9116270  25.8036650  13.7097270  22.8243670  26.6832670
  12.7735050  22.1482820  25.7043510  12.8940230  19.8225360  29.7095070
  11.9996280  19.7892120  30.0488780  13.4337780  20.0212150  30.4746320
  11.5186380  19.7362630  17.2058640  10.6150460  19.9992830  17.0310300
  12.0027000  20.0073800  16.4258600  28.0279430  20.4586620  22.4834840
  28.5516910  19.9649270  21.8525010  28.6138850  20.5936980  23.2282410
  14.0613590  18.7928170  15.1153020  14.7705290  18.3711390  14.6300300
  13.3453530  18.8603400  14.4836370  13.7087750  14.8467500  14.1555670
  14.4315880  15.3876440  14.4736890  13.9812270  14.5730920  13.2797210
  27.5179400  19.7159970  18.4227250  28.0138520  19.4830840  19.2076130
  27.3195470  18.8771810  18.0064890  13.3979940  14.0973690  24.0578290
  14.0456130  13.5471070  23.6173450  13.8181780  14.3516840  24.8794100
  28.9466560  18.3520920  20.9564930  28.8365840  18.1976960  21.8947200
  29.7074150  17.8241860  20.7140340  27.2932280  14.2915050  27.4147930
  27.9304500  14.9049190  27.7807120  27.4407170  14.3275710  26.4697160
  29.8356830  16.1828840  14.1971070  30.7606140  16.0510020  13.9889360
  29.8132620  16.2621660  15.1507520  29.9095320  16.9539500  16.8227780
  29.1146820  16.8884620  17.3520690  30.1138600  17.8890140  16.8113130
  13.1511940  14.2529360  26.8003610  12.8026760  14.7093180  27.5661790
  12.8199640  13.3586490  26.8826040  14.7576310  27.4248960  30.9656800
  14.7145940  27.0541870  31.8471260  14.8887320  28.3626530  31.1058620
  18.4582340  28.9808550  26.5666520  18.2173700  29.2483110  25.6797040
  19.3984980  29.1514280  26.6217380  20.6636760  15.4441240  30.3223030
  20.6025650  16.0363070  31.0718440  21.6037140  15.3367200  30.1773290
  23.3011320  15.1011300  29.9615320  23.9151730  15.4190590  29.2996400
  23.8460880  14.6159890  30.5811180  13.8232580  13.7805560  30.0754380
  14.3715570  13.5993610  29.3120490  13.8887890  12.9899670  30.6110690
  14.5964340  30.3711210  28.0854580  14.0024660  30.2395910  28.8244620
  14.5888180  29.5349350  27.6196680  24.0419360  13.6643440  26.2884610
  23.1679200  13.9978550  26.0857540  23.9330110  13.1916620  27.1136480
  24.9491340  15.8714310  27.6726330  24.6204700  15.0566070  27.2928060
  25.8973640  15.8284120  27.5492020  14.2276570  27.7369590  27.0362620
  13.5010630  27.1174880  26.9688570  14.2885720  28.1310200  26.1660700
  21.7894180  14.5813280  25.2277520  21.0065970  15.0558780  25.5074280
  21.4957110  13.6768110  25.1190700  26.3415250  15.2836380  23.2726610
  26.7823340  15.2281480  22.4248210  26.0722840  16.1994390  23.3436790
  28.2053820  14.9151620  21.2835430  28.1442220  13.9712840  21.1366450
  28.9845850  15.0231710  21.8288890  12.5106570  31.0543980  20.2459380
  12.3428610  30.4214660  20.9441270  11.6441080  31.2603380  19.8953570
  13.1334590  14.8860760  17.7491240  13.8913950  14.9989640  17.1755270
  12.6711760  15.7229960  17.7034670  19.6748400  17.0000030  20.7393550
  18.8622910  16.6256920  20.3989430  20.1790040  16.2445110  21.0414740
  24.1773380  13.6642480  21.9776620  24.7802750  14.2362690  22.4525140
  23.4366370  14.2281920  21.7550520  27.3207980  14.0664040  17.2516900
  27.5158610  14.9647490  17.5184330  26.5337850  13.8351120  17.7449850
  14.1169270  29.7477210  17.6909520  13.5916890  30.1285240  16.9871480
  14.0413850  30.3727980  18.4119230  15.5059740  15.4124810  16.2893210
  16.0352500  14.6254610  16.1601160  16.1388060  16.0916000  16.5228740
  17.6997580  15.1499950  19.3438600  17.0700320  14.4487260  19.5108730
  17.1602720  15.9104080  19.1271760  17.8253140  14.4283930  31.7791090
  17.5437410  14.9317530  31.0151910  18.2072840  13.6305680  31.4133220
  16.7162240  31.6959590  16.5658770  17.4481060  31.4118870  16.0182660
  16.9755910  31.4572870  17.4558150  15.8777030  27.8124320  16.5705100
  15.2485910  28.2809420  17.1190930  15.9924860  26.9673540  17.0051290
  24.4268600  13.8437510  32.3571560  24.3134050  14.1632120  33.2523080
  25.2438340  14.2450020  32.0608840  23.3326750  21.8629980   2.7206300
  23.2520800  20.9484590   2.4498010  22.9191170  22.3597050   2.0146010
  21.4644790  23.6409000   4.6015570  20.6886890  23.1609440   4.8914140
  22.1157720  22.9614650   4.4271730  15.4810620  23.9528810   5.4791330
  14.6495500  23.6977520   5.8787840  16.0891600  24.0239580   6.2149250
  25.4852220  28.0469190   3.3814700  25.0233750  27.2756430   3.7101870
  26.2977770  28.0735260   3.8867150  15.4611880  27.9868900   5.6749350
  15.7639920  27.0966640   5.4959570  16.2055470  28.5439120   5.4471600
  11.8535580  21.5136350   5.1473420  12.4251690  20.7458550   5.1477060
  11.8537120  21.8125110   4.2380030  21.7115530  30.3327200   3.0018690
  21.0926970  30.7884700   2.4313130  22.5667310  30.4878660   2.6008390
  20.9053780  26.3166190   4.6085730  20.8362060  25.3756130   4.4474860
  21.6673640  26.4067600   5.1808300  13.0960450  16.9220710   6.9342350
  12.9163290  16.0246460   7.2145110  12.6940530  17.4692580   7.6089300
  21.9358950  19.1236570   4.8354660  22.3123770  18.2508450   4.7228330
  21.8378460  19.4595270   3.9445100  25.7183070  16.6187010   1.7683000
  26.5392690  16.1283580   1.8108480  25.7517150  17.2084670   2.5214840
  13.7147120  19.4181210   5.5424690  14.3957230  19.6819580   6.1612090
  13.3995170  18.5782080   5.8762700  17.9071690  20.4648570   4.6297280
  18.4149910  20.9629540   5.2702300  18.4384930  19.6883770   4.4536640
  30.0082620  18.6353760   8.3326630  29.3034790  19.0235470   7.8141740
  30.2740540  19.3304050   8.9347560  16.1907790  15.1047130   8.8960700
  16.1926230  15.6219520   8.0906600  15.3612100  14.6277310   8.8730630
  17.4410640  24.7442310   7.0734200  17.1080020  25.3711230   7.7155270
  17.6177320  25.2704190   6.2935870  25.9544550  18.5587390   4.5410540
  25.2500120  18.8472280   5.1213650  26.3156710  19.3687500   4.1810100
  15.8723120  16.8157090   6.9031150  16.2139930  17.6599140   6.6085020
  14.9338930  16.9640830   7.0196490  16.6529740  26.7123110   8.8883380
  17.2703740  27.3874190   8.6067830  15.7922860  27.1211090   8.7970880
  27.5707330  28.1762520   6.8038020  26.8870850  28.8461630   6.7954690
  28.1101620  28.3743170   6.0382880  29.0231470  18.0042180   4.9319750
  28.0756380  18.0381160   5.0635180  29.3481460  18.8181130   5.3169110
  19.5551010  14.3039360   3.2275740  19.8625990  13.7486250   2.5111240
  18.6251710  14.4383820   3.0448730  25.1066070  30.0206650   5.5183200
  25.1193230  29.6168940   4.6505460  24.5541290  30.7953940   5.4144630
  24.5051510  24.9236490   6.8465810  24.9220300  24.7096600   6.0119270
  25.2291330  25.1809280   7.4174430  28.4513610  23.3223710   6.9382050
  27.6232240  23.3916800   6.4632180  29.0464090  23.9078020   6.4697880
  25.4155620  20.1093030   7.8836920  25.0026800  20.9346740   8.1376910
  24.6831570  19.5238070   7.6913280  17.5488410  22.8952930   2.7455590
  17.1445410  22.1830180   2.2501490  17.6351530  22.5506170   3.6343630
  18.0170110  26.5820490   4.9094800  17.7198400  25.9765960   4.2302580
  18.9669930  26.6197800   4.7984160  16.2617030  19.6696140   6.5254630
  16.8131620  19.7791480   5.7507880  16.7760540  20.0433740   7.2409860
  26.1055720  30.1552360   8.5717900  25.6286280  30.9624550   8.3790510
  25.4217510  29.5030690   8.7244110  17.1088540  26.3202180  11.5602600
  16.2117070  26.5442150  11.8076000  17.1341410  26.4437120  10.6114000
  15.9359760  23.1915500  10.1359970  15.7967530  24.0638300  10.5047370
  15.0541120  22.8488310   9.9907910  17.7340110  29.1337200  12.3445120
  17.7055540  29.5380150  11.4773550  17.5705080  28.2047560  12.1816720
  29.6854930  29.9164300  13.6409290  30.1614650  30.3947190  14.3198370
  30.3062090  29.8481790  12.9154790  11.8878410  24.9613050   6.0530880
  11.9658830  25.0961820   5.1086600  12.5020090  24.2528940   6.2459000
  29.0888180  27.1077150  10.8009300  29.2151240  26.8689030   9.8826480
  29.1309560  26.2761690  11.2731380  22.9504920  30.8105150   9.3704110
  23.4649590  30.7213160  10.1726540  22.1074000  31.1564850   9.6632020
  28.9412190  19.1609610  11.7659040  28.3256460  19.6689280  11.2374500
  28.6208610  18.2607940  11.7084980  11.9437930  26.0027220   8.5925340
  12.1068970  25.5332580   7.7744710  12.4090380  25.4950780   9.2574180
  16.7156700  15.1332980   3.6285910  16.2724850  15.9142520   3.2970430
  17.2741690  15.4562870   4.3356850  21.0026510  18.0001500   9.2321230
  20.5405880  18.2084520  10.0441170  20.6004620  17.1860850   8.9291900
  26.0031020  19.2210450  10.3617890  25.1524610  18.9216200  10.6826960
  25.8432810  19.4652460   9.4501710  23.0980730  20.7212200  12.4616680
  23.4234140  19.8875950  12.1218910  23.8861060  21.2440720  12.6095010
  18.7532600  15.6780310   5.4875510  19.0504930  16.5843140   5.4067530
  19.3018160  15.1899090   4.8735080  18.9470130  21.1552130  12.0227430
  18.8513730  20.2146860  11.8727830  19.7902110  21.3767200  11.6275500
  14.0780670  17.5665800  10.1761210  13.6844060  18.4141010  10.3833990
  13.3899070  16.9292170  10.3669850  20.6525720  17.6500770  13.2457950
  19.9624040  17.4572970  13.8804040  21.3958020  17.9335410  13.7782250
  11.3797720  15.4894260   4.2091290  11.0910770  16.0597120   4.9216270
  12.1243480  15.0098710   4.5722520  22.9288690  21.4899210   6.0811870
  22.1969810  21.9986020   6.4301970  22.5313030  20.6729190   5.7800650
  19.3666080  18.1653410   4.4864360  19.3702140  17.7243360   3.6368900
  20.2617200  18.4870740   4.5936180  15.2168460  18.0479900   3.4458570
  14.8768510  18.5255130   4.2025620  14.4545780  17.5945020   3.0859670
  23.3914600  16.9432890   5.4934810  23.4087340  17.3941540   6.3376660
  23.1430180  16.0438530   5.7068250  26.8185350  14.3565070  11.3321190
  27.1431120  13.6254730  11.8579170  26.8541860  14.0378710  10.4302180
  13.5176910  25.3778650  10.7521150  13.1331700  24.7372320  11.3504110
  13.8289100  26.0814770  11.3215880  19.6674050  22.2255190   6.2329770
  20.0344180  21.7513760   6.9791110  19.4779110  23.0996760   6.5738110
  12.5314540  16.9698880   2.3623240  12.2461460  16.6054550   3.2001860
  12.4693400  16.2379340   1.7486380  17.4573420  21.2663830   8.5513980
  17.1530490  22.1455810   8.7764340  18.4119880  21.3263620   8.5871420
  26.7443190  24.4690180   4.9407220  27.4642310  24.9645470   4.5503330
  26.5425010  23.7908070   4.2961090  22.1261990  24.5399240  10.8276220
  22.0599300  23.6194910  10.5733810  21.4967130  24.6374680  11.5420860
  16.0292610  25.1405200   2.7859640  16.5471280  24.3373460   2.7316530
  15.5776630  25.0784340   3.6276470  13.5137150  22.1066570   9.6985340
  13.1552090  22.7720420  10.2858680  13.2191710  21.2750120  10.0697960
  16.7150270  22.5650810  12.5824890  16.4150410  22.7107990  11.6852710
  17.4861510  22.0056100  12.4898280  22.0578720  27.3619810  10.5780020
  22.0723260  26.4300770  10.3598930  21.3503820  27.4479570  11.2169790
  28.2689930  24.0027150   9.9248600  27.5438120  24.5955930   9.7277990
  28.7965390  23.9950690   9.1261970  23.7989520  25.7287320   3.4232450
  24.1513340  25.1315450   2.7633820  22.9151850  25.4031550   3.5940700
  21.4912620  29.0037380   7.6720520  22.1354840  29.2096760   8.3493940
  21.8542060  28.2425780   7.2191370  22.7644700  27.0069730   6.3897970
  23.4066930  26.3062890   6.5030140  23.2894050  27.7868170   6.2094860
  24.5382320  27.8064630   9.5934030  24.8738560  28.3931320  10.2711950
  23.6182660  27.6757340   9.8231820  12.0885720  15.5959810  10.3757440
  11.3744240  15.7956730  10.9810050  12.5080760  14.8199380  10.7472240
  12.3758310  29.5840070  11.3623970  12.4849430  28.6434810  11.2219360
  11.7238870  29.8494820  10.7137700  20.3670900  27.8555960  12.7622090
  20.0467770  27.1365200  13.3067780  19.6929260  28.5311030  12.8358150
  23.5824500  18.0882120   8.1258890  23.9505320  17.2677330   8.4538460
  22.7222700  18.1484010   8.5414540  20.5426490  20.7421710   8.3496860
  21.0411740  21.2167530   9.0148710  20.6849440  19.8185230   8.5566890
  27.7493350  16.9589670   9.1925250  27.2466950  17.6995070   9.5319060
  28.5650010  17.3473670   8.8762040  26.0415360  22.2022850   2.6386610
  25.1005500  22.2173080   2.8134300  26.3559430  21.4158810   3.0846910
  28.0440940  29.3731700   4.3140870  28.1688360  30.1962870   4.7864680
  28.9106500  29.1622430   3.9665020  15.5158470  31.4662910   3.9858000
  16.2520950  30.9178370   4.2566570  15.8999390  32.3318920   3.8463990
  14.5216750  30.6508980  13.1743580  15.3229480  30.9721030  13.5878980
  14.0068570  30.2904560  13.8963490  23.3581380  26.7588850  13.1218990
  22.7519540  26.7820450  12.3814740  23.0535490  26.0271890  13.6586240
  24.7881750  30.4869140  11.7328400  25.7403500  30.4027160  11.6828640
  24.6409970  31.1510850  12.4062190  12.2414560  23.1382440  12.1179630
  12.7453580  22.5589720  12.6895860  11.5021980  23.4222670  12.6556000
  19.2952500  24.5453430  11.6515150  18.5298170  25.1138430  11.5669820
  19.4768460  24.2529640  10.7583380  26.4375850  26.2758760  12.2090170
  27.1785320  26.6134520  11.7057630  25.6748530  26.4450820  11.6559940
  14.2737640  21.2812030  13.0129700  14.3142980  20.9825900  13.9214930
  15.1283140  21.6819640  12.8537220  16.2143450  19.8604130  10.9804190
  15.6839910  19.3695080  10.3527530  16.8831520  20.2888330  10.4462120
  25.1121510  24.3273590  10.7445380  25.5262530  24.4818670  11.5935800
  24.1772510  24.4528810  10.9071160  25.5843680  21.6669750  12.7484530
  26.1664450  20.9122070  12.6605010  25.7605450  22.1977190  11.9716010
  16.7015750  16.8266500  11.0601480  16.6072620  16.2087250  10.3352350
  16.1213140  17.5532790  10.8331390  19.4677190  15.3839740   8.0928870
  19.0194490  15.4064000   7.2474420  18.8342390  14.9858760   8.6899170
  19.8736740  24.2794070   8.7141310  20.2924850  25.1226800   8.5417550
  18.9545370  24.4166110   8.4848090  22.2100640  22.0110250  10.0979150
  22.3296850  21.4151390  10.8373990  23.0694640  22.0479940   9.6780450
  24.5488540  22.5647440   8.6741660  24.0223760  23.0890060   8.0706800
  24.8919880  23.1974830   9.3051390  17.7244160  30.5847080   9.8299040
  17.1865250  31.3093140   9.5107740  17.9778120  30.1077420   9.0396380
  18.9769410  18.5531600  11.3554970  19.5669100  18.2447450  12.0432790
  18.1589650  18.0811350  11.5114870  23.7962840  18.1697410  11.5887990
  23.1078360  17.5078950  11.5237980  24.5168860  17.7235680  12.0336450
  20.5806370  31.8198290  10.0885690  20.5065070  32.7233430  10.3958060
  19.6785210  31.5010190  10.0607760  11.9833660  29.1472880   3.3919310
  12.3136670  28.2793940   3.1597950  12.4124660  29.3531400   4.2224270
  12.4723870  30.0143470   6.1300940  12.0354860  30.1944270   6.9625090
  13.0401550  30.7718090   5.9882660  28.1086050  29.5160470  10.4178250
  27.5088040  29.5753030   9.6742170  28.2379950  28.5765450  10.5475100
  12.3048300  22.5263700   2.4889820  11.6497140  22.2575340   1.8449520
  13.1426250  22.4168180   2.0391800  29.8103930  24.8575870   3.1024090
  30.1812760  24.0743190   2.6960060  30.4505860  25.5464970   2.9241390
  26.7937690  26.2412450   8.5154410  25.9797530  26.6709610   8.7780200
  27.2011890  26.8530860   7.9023460  13.3424230  22.9116270   7.0293160
  13.7097270  22.8243670   7.9089180  12.7735050  22.1482820   6.9300020
  28.1428090  21.3800650  10.0423630  27.9114180  21.1513400   9.1421580
  28.4032640  22.3000200   9.9968520  12.8940230  19.8225360  10.9351580
  11.9996280  19.7892120  11.2745290  13.4337780  20.0212150  11.7002830
  26.5816160  16.6057080  12.8203330  27.4586340  16.6140480  13.2037330
  26.5937000  15.8687920  12.2095680  28.0279430  20.4586620   3.7091350
  28.5516910  19.9649270   3.0781520  28.6138850  20.5936980   4.4538920
  28.2069150  20.5426490   7.2310900  27.2571860  20.5090030   7.3455890
  28.3882160  21.4526600   6.9960670  13.3979940  14.0973690   5.2834800
  14.0456130  13.5471070   4.8429960  13.8181780  14.3516840   6.1050610
  28.9466560  18.3520920   2.1821440  28.8365840  18.1976960   3.1203710
  29.7074150  17.8241860   1.9396850  27.2932280  14.2915050   8.6404440
  27.9304500  14.9049190   9.0063630  27.4407170  14.3275710   7.6953670
  13.1511940  14.2529360   8.0260120  12.8026760  14.7093180   8.7918300
  12.8199640  13.3586490   8.1082550  14.7576310  27.4248960  12.1913310
  14.7145940  27.0541870  13.0727770  14.8887320  28.3626530  12.3315130
  18.4582340  28.9808550   7.7923030  18.2173700  29.2483110   6.9053550
  19.3984980  29.1514280   7.8473890  20.6636760  15.4441240  11.5479540
  20.6025650  16.0363070  12.2974950  21.6037140  15.3367200  11.4029800
  23.3011320  15.1011300  11.1871830  23.9151730  15.4190590  10.5252910
  23.8460880  14.6159890  11.8067690  29.7186500  31.0002930   8.5933670
  29.2244780  31.3971800   7.8760800  29.1099790  30.3752140   8.9870950
  13.8232580  13.7805560  11.3010890  14.3715570  13.5993610  10.5377000
  13.8887890  12.9899670  11.8367200  14.5964340  30.3711210   9.3111090
  14.0024660  30.2395910  10.0501130  14.5888180  29.5349350   8.8453190
  24.0419360  13.6643440   7.5141120  23.1679200  13.9978550   7.3114050
  23.9330110  13.1916620   8.3392990  24.9491340  15.8714310   8.8982840
  24.6204700  15.0566070   8.5184570  25.8973640  15.8284120   8.7748530
  27.4025950  31.6426350   5.8720410  26.9428920  32.3942160   5.4978430
  26.7738410  30.9232820   5.8135210  14.2276570  27.7369590   8.2619130
  13.5010630  27.1174880   8.1945080  14.2885720  28.1310200   7.3917210
  17.8321670  29.9514590   5.0468540  18.3486690  29.3401950   4.5216800
  18.4819050  30.4543370   5.5379550  20.5717170  30.8423080   5.8737520
  20.8594980  30.5877380   4.9970530  21.0840390  30.2900440   6.4643090
  21.7894180  14.5813280   6.4534030  21.0065970  15.0558780   6.7330790
  21.4957110  13.6768110   6.3447210  26.3415250  15.2836380   4.4983120
  26.7823340  15.2281480   3.6504720  26.0722840  16.1994390   4.5693300
  28.2053820  14.9151620   2.5091940  28.1442220  13.9712840   2.3622960
  28.9845850  15.0231710   3.0545400  24.1773380  13.6642480   3.2033130
  24.7802750  14.2362690   3.6781650  23.4366370  14.2281920   2.9807030
  20.6389530  31.7639180  13.2405720  21.5656840  31.5283450  13.2841680
  20.6239960  32.5911180  12.7591750  17.8253140  14.4283930  13.0047600
  17.5437410  14.9317530  12.2408420  18.2072840  13.6305680  12.6389730
  24.4268600  13.8437510  13.5828070  24.3134050  14.1632120  14.4779590
  25.2438340  14.2450020  13.2865350  27.2067090  30.9909040  13.0646760
  27.9992410  30.4958270  12.8572720  27.5000240  31.6699180  13.6722370
  23.3326750   3.0886490  77.8180260  23.2520800   2.1741100  77.5471970
  22.9191170   3.5853560  77.1119970  21.4644790   4.8665510  79.6989530
  20.6886890   4.3865950  79.9888100  22.1157720   4.1871160  79.5245690
  15.4810620   5.1785320  80.5765290  14.6495500   4.9234030  80.9761800
  16.0891600   5.2496090  81.3123210  25.4852220   9.2725700  78.4788660
  25.0233750   8.5012940  78.8075830  26.2977770   9.2991770  78.9841110
  15.4611880   9.2125410  80.7723310  15.7639920   8.3223150  80.5933530
  16.2055470   9.7695630  80.5445560  11.8535580   2.7392860  80.2447380
  12.4251690   1.9715060  80.2451020  11.8537120   3.0381620  79.3353990
  21.7115530  11.5583710  78.0992650  21.0926970  12.0141210  77.5287090
  22.5667310  11.7135170  77.6982350  20.9053780   7.5422700  79.7059690
  20.8362060   6.6012640  79.5448820  21.6673640   7.6324110  80.2782260
  22.5778880   6.4422950  75.4924560  21.9596150   6.9072400  74.9287280
  23.0902130   7.1350430  75.9094070  11.9462080   7.1279480  72.8664190
  11.5690060   7.6166580  72.1349090  12.2035150   7.8004760  73.4970720
  27.5707330   9.4019030  81.9011980  26.8870850  10.0718140  81.8928650
  28.1101620   9.5999680  81.1356840  25.1066070  11.2463160  80.6157160
  25.1193230  10.8425450  79.7479420  24.5541290  12.0210450  80.5118590
  26.4011490   7.9679380  75.7047330  26.2907820   7.0253710  75.8296750
  26.3979740   8.3295020  76.5910090  21.9431770   3.5944700  75.0609820
  21.0161050   3.5282080  75.2898290  22.0956590   4.5324830  74.9465060
  28.4513610   4.5480220  82.0356010  27.6232240   4.6173310  81.5606140
  29.0464090   5.1334530  81.5671840  25.9729060   5.1565000  75.5645070
  25.3541480   4.8184550  74.9171370  25.9553510   4.5124760  76.2724260
  17.5488410   4.1209440  77.8429550  17.1445410   3.4086690  77.3475450
  17.6351530   3.7762680  78.7317590  18.0170110   7.8077000  80.0068760
  17.7198400   7.2022470  79.3276540  18.9669930   7.8454310  79.8958120
  24.1493760   4.3951810  72.5717820  24.5887040   3.5574240  72.4255640
  24.8622180   5.0281210  72.6581960  22.2589140   9.3347880  76.5399060
  22.6985050  10.0772210  76.1254450  22.1976030   9.5774450  77.4638020
  14.2493040   3.0154420  75.3436200  14.1290640   3.7416510  74.7317470
  13.9393930   2.2457330  74.8664110  11.8878410   6.1869560  81.1504840
  11.9658830   6.3218330  80.2060560  12.5020090   5.4785450  81.3432960
  13.1326040   7.8869750  77.5611020  12.7254120   8.0284340  76.7064620
  14.0239050   7.6029910  77.3582230  24.9259320  12.3217000  73.8962070
  24.7660460  12.0319940  74.7943900  24.7606030  11.5457130  73.3607300
  17.4047700  12.1015530  75.6733690  17.2290180  11.1851070  75.4601490
  16.5503440  12.4602820  75.9131490  24.6285450   9.8304560  72.4560070
  23.9350610   9.8281850  71.7962350  25.3708310   9.4063880  72.0254240
  24.1935380  11.4567270  76.5308560  24.6492330  10.6756650  76.8447180
  24.5327900  12.1674090  77.0749740  22.9288690   2.7155720  81.1785830
  22.1969810   3.2242530  81.5275930  22.5313030   1.8985700  80.8774610
  18.4407730   2.7023140  71.9728380  17.8724630   2.2541390  71.3464290
  19.1496730   3.0615920  71.4393530  15.9855210   6.6981330  74.2454790
  15.2117470   6.1578950  74.0853510  16.7149840   6.1787940  73.9072550
  26.7443190   5.6946690  80.0381180  27.4642310   6.1901980  79.6477290
  26.5425010   5.0164580  79.3935050  16.0292610   6.3661710  77.8833600
  16.5471280   5.5629970  77.8290490  15.5776630   6.3040850  78.7250430
  20.9162110   7.6327990  73.1560900  21.2577810   8.3770220  72.6604220
  20.0874820   7.9459110  73.5185730  27.1915790   2.7716140  71.9452590
  27.1079510   3.2030360  71.0949030  27.9109980   3.2314490  72.3779410
  28.2203040   9.6258400  74.6734720  27.5779200   8.9714020  74.9478440
  27.8333700  10.0313490  73.8975390  23.7989520   6.9543830  78.5206410
  24.1513340   6.3571960  77.8607780  22.9151850   6.6288060  78.6914660
  19.8852800   7.7141520  75.9276820  20.5723930   8.2610730  76.3084410
  19.0985220   8.2582250  75.9626430  12.0245200   3.3314340  71.4193900
  12.8940050   3.6139140  71.7029820  11.5335520   4.1450210  71.3042710
  19.1880010   4.7187550  75.5402180  19.6442790   5.5292800  75.7662370
  18.8368220   4.4010690  76.3720670  22.7644700   8.2326240  81.4871930
  23.4066930   7.5319400  81.6004100  23.2894050   9.0124680  81.3068820
  26.6100420   8.5174860  71.2111070  26.3838000   7.8005300  71.8035710
  26.2196620   8.2687300  70.3732820  12.3916450  12.5441720  71.9855530
  12.7514090  13.1431060  71.3312800  12.2508790  13.0901610  72.7590560
  26.1916670   6.4346800  72.8725230  25.9038370   6.8959490  73.6603110
  26.9868840   5.9744570  73.1409450  18.4085070   9.9272920  72.8029200
  18.3995170  10.6602610  72.1873710  17.4883430   9.6804500  72.8956160
  14.0091710   5.1487810  73.5475960  13.4019660   5.8886710  73.5571260
  14.4841060   5.2387170  72.7214160  21.3944670   9.9901160  71.4654390
  21.4956650   9.7865150  70.5356370  20.4946410   9.7359440  71.6702170
  20.0362780  12.5087480  76.1602060  20.2904280  12.4708870  75.2381430
  19.0875260  12.3820810  76.1530310  26.0415360   3.4279360  77.7360570
  25.1005500   3.4429590  77.9108260  26.3559430   2.6415320  78.1820870
  16.0197000   5.1098960  71.2964530  16.7860270   4.9980320  71.8589960
  16.0971690   4.4136930  70.6441300  28.0440940  10.5988210  79.4114830
  28.1688360  11.4219380  79.8838640  28.9106500  10.3878940  79.0638980
  15.5158470  12.6919420  79.0831960  16.2520950  12.1434880  79.3540530
  15.8999390  13.5575430  78.9437950  12.4003950   8.7592990  74.9573470
  11.4743730   9.0014130  74.9478880  12.8660380   9.5867250  74.8358220
  18.6260780  11.8649730  70.9057530  19.4189390  12.1538560  70.4539320
  18.1065130  11.4341900  70.2270010  27.6790950  11.0919860  72.3294270
  27.3932460  10.6785000  71.5148450  27.4810500  12.0207570  72.2094790
  19.1438180   7.0853140  70.7699880  19.0388820   6.4705490  71.4961260
  18.9762400   6.5619030  69.9862890  22.3840910   6.1473170  71.3741870
  21.8351010   6.5942470  72.0184610  23.0060170   5.6422420  71.8979540
  18.0516030   5.1064090  73.2707170  18.4732450   4.9403960  74.1138560
  18.1766870   4.2964320  72.7762310  20.5643670   4.1301700  70.5184270
  21.0849330   3.4150720  70.1525420  21.2112070   4.7687570  70.8184780
  21.1291700  12.2113310  72.8086010  22.0242490  12.5498280  72.8304770
  21.1609330  11.4892720  72.1810290  14.7687860   7.5840360  71.0373010
  15.2062730   8.1270030  71.6930590  15.2535590   6.7587310  71.0469350
  11.9833660  10.3729390  78.4893270  12.3136670   9.5050450  78.2571910
  12.4124660  10.5787910  79.3198230  16.5795580   8.7038400  76.1495240
  16.2791120   8.5803370  77.0499150  16.4733070   7.8446990  75.7410970
  29.3487500   8.4834800  70.8521920  28.5180460   8.5511450  71.3229150
  29.5259330   9.3738920  70.5488780  28.8043960   5.2282280  73.3556120
  29.5662870   5.7978930  73.4615810  28.8198330   4.6609480  74.1264430
  12.3048300   3.7520210  77.5863780  11.6497140   3.4831850  76.9423480
  13.1426250   3.6424690  77.1365760  29.8103930   6.0832380  78.1998050
  30.1812760   5.2999700  77.7934020  30.4505860   6.7721480  78.0215350
  28.8563130   5.5216650  70.5128640  29.1311970   6.4295530  70.3847860
  28.6673870   5.4579180  71.4490630  28.7528470   3.4585640  75.5058070
  28.3772070   2.6913570  75.0739360  28.0231590   3.8408340  75.9933000
  26.8513740  12.2187560  77.1396640  27.4472810  11.8972130  76.4631060
  27.1091890  11.7459380  77.9309910  27.4025950  12.8682860  80.9694370
  26.9428920  13.6198670  80.5952390  26.7738410  12.1489330  80.9109170
  17.8321670  11.1771100  80.1442500  18.3486690  10.5658460  79.6190760
  18.4819050  11.6799880  80.6353510  20.5717170  12.0679590  80.9711480
  20.8594980  11.8133890  80.0944490  21.0840390  11.5156950  81.5617050
  12.5106570  12.2800490  76.5689850  12.3428610  11.6471170  77.2671740
  11.6441080  12.4859890  76.2184040  14.1169270  10.9733720  74.0139990
  13.5916890  11.3541750  73.3101950  14.0413850  11.5984490  74.7349700
  28.8734590  12.5321260  75.3353930  29.0486780  11.8459000  74.6914850
  28.1756160  13.0568310  74.9430600  16.7162240  12.9216100  72.8889240
  17.4481060  12.6375380  72.3413130  16.9755910  12.6829380  73.7788620
  15.8777030   9.0380830  72.8935570  15.2485910   9.5065930  73.4421400
  15.9924860   8.1930050  73.3281760  23.3326750   3.0886490  59.0436770
  23.2520800   2.1741100  58.7728480  22.9191170   3.5853560  58.3376480
  21.4644790   4.8665510  60.9246040  20.6886890   4.3865950  61.2144610
  22.1157720   4.1871160  60.7502200  15.4810620   5.1785320  61.8021800
  14.6495500   4.9234030  62.2018310  16.0891600   5.2496090  62.5379720
  25.4852220   9.2725700  59.7045170  25.0233750   8.5012940  60.0332340
  26.2977770   9.2991770  60.2097620  15.4611880   9.2125410  61.9979820
  15.7639920   8.3223150  61.8190040  16.2055470   9.7695630  61.7702070
  11.8535580   2.7392860  61.4703890  12.4251690   1.9715060  61.4707530
  11.8537120   3.0381620  60.5610500  21.7115530  11.5583710  59.3249160
  21.0926970  12.0141210  58.7543600  22.5667310  11.7135170  58.9238860
  20.9053780   7.5422700  60.9316200  20.8362060   6.6012640  60.7705330
  21.6673640   7.6324110  61.5038770  22.5778880   6.4422950  56.7181070
  21.9596150   6.9072400  56.1543790  23.0902130   7.1350430  57.1350580
  17.4410640   5.9698820  63.3964670  17.1080020   6.5967740  64.0385740
  17.6177320   6.4960700  62.6166340  16.6529740   7.9379620  65.2113850
  17.2703740   8.6130700  64.9298300  15.7922860   8.3467600  65.1201350
  11.9462080   7.1279480  54.0920700  11.5690060   7.6166580  53.3605600
  12.2035150   7.8004760  54.7227230  27.5707330   9.4019030  63.1268490
  26.8870850  10.0718140  63.1185160  28.1101620   9.5999680  62.3613350
  25.1066070  11.2463160  61.8413670  25.1193230  10.8425450  60.9735930
  24.5541290  12.0210450  61.7375100  26.4011490   7.9679380  56.9303840
  26.2907820   7.0253710  57.0553260  26.3979740   8.3295020  57.8166600
  24.5051510   6.1493000  63.1696280  24.9220300   5.9353110  62.3349740
  25.2291330   6.4065790  63.7404900  21.9431770   3.5944700  56.2866330
  21.0161050   3.5282080  56.5154800  22.0956590   4.5324830  56.1721570
  28.4513610   4.5480220  63.2612520  27.6232240   4.6173310  62.7862650
  29.0464090   5.1334530  62.7928350  25.9729060   5.1565000  56.7901580
  25.3541480   4.8184550  56.1427880  25.9553510   4.5124760  57.4980770
  17.5488410   4.1209440  59.0686060  17.1445410   3.4086690  58.5731960
  17.6351530   3.7762680  59.9574100  18.0170110   7.8077000  61.2325270
  17.7198400   7.2022470  60.5533050  18.9669930   7.8454310  61.1214630
  26.1055720  11.3808870  64.8948370  25.6286280  12.1881060  64.7020980
  25.4217510  10.7287200  65.0474580  17.1088540   7.5458690  67.8833070
  16.2117070   7.7698660  68.1306470  17.1341410   7.6693630  66.9344470
  24.1493760   4.3951810  53.7974330  24.5887040   3.5574240  53.6512150
  24.8622180   5.0281210  53.8838470  15.9359760   4.4172010  66.4590440
  15.7967530   5.2894810  66.8277840  15.0541120   4.0744820  66.3138380
  22.2589140   9.3347880  57.7655570  22.6985050  10.0772210  57.3510960
  22.1976030   9.5774450  58.6894530  17.7340110  10.3593710  68.6675590
  17.7055540  10.7636660  67.8004020  17.5705080   9.4304070  68.5047190
  14.2493040   3.0154420  56.5692710  14.1290640   3.7416510  55.9573980
  13.9393930   2.2457330  56.0920620  29.6854930  11.1420810  69.9639760
  30.1614650  11.6203700  70.6428840  30.3062090  11.0738300  69.2385260
  11.8878410   6.1869560  62.3761350  11.9658830   6.3218330  61.4317070
  12.5020090   5.4785450  62.5689470  13.1326040   7.8869750  58.7867530
  12.7254120   8.0284340  57.9321130  14.0239050   7.6029910  58.5838740
  29.0888180   8.3333660  67.1239770  29.2151240   8.0945540  66.2056950
  29.1309560   7.5018200  67.5961850  22.9504920  12.0361660  65.6934580
  23.4649590  11.9469670  66.4957010  22.1074000  12.3821360  65.9862490
  24.9259320  12.3217000  55.1218580  24.7660460  12.0319940  56.0200410
  24.7606030  11.5457130  54.5863810  17.4047700  12.1015530  56.8990200
  17.2290180  11.1851070  56.6858000  16.5503440  12.4602820  57.1388000
  24.6285450   9.8304560  53.6816580  23.9350610   9.8281850  53.0218860
  25.3708310   9.4063880  53.2510750  24.1935380  11.4567270  57.7565070
  24.6492330  10.6756650  58.0703690  24.5327900  12.1674090  58.3006250
  11.9437930   7.2283730  64.9155810  12.1068970   6.7589090  64.0975180
  12.4090380   6.7207290  65.5804650  22.9288690   2.7155720  62.4042340
  22.1969810   3.2242530  62.7532440  22.5313030   1.8985700  62.1031120
  18.4407730   2.7023140  53.1984890  17.8724630   2.2541390  52.5720800
  19.1496730   3.0615920  52.6650040  13.5176910   6.6035160  67.0751620
  13.1331700   5.9628830  67.6734580  13.8289100   7.3071280  67.6446350
  19.6674050   3.4511700  62.5560240  20.0344180   2.9770270  63.3021580
  19.4779110   4.3253270  62.8968580  17.4573420   2.4920340  64.8744450
  17.1530490   3.3712320  65.0994810  18.4119880   2.5520130  64.9101890
  15.9855210   6.6981330  55.4711300  15.2117470   6.1578950  55.3110020
  16.7149840   6.1787940  55.1329060  26.7443190   5.6946690  61.2637690
  27.4642310   6.1901980  60.8733800  26.5425010   5.0164580  60.6191560
  22.1261990   5.7655750  67.1506690  22.0599300   4.8451420  66.8964280
  21.4967130   5.8631190  67.8651330  16.0292610   6.3661710  59.1090110
  16.5471280   5.5629970  59.0547000  15.5776630   6.3040850  59.9506940
  20.9162110   7.6327990  54.3817410  21.2577810   8.3770220  53.8860730
  20.0874820   7.9459110  54.7442240  13.5137150   3.3323080  66.0215810
  13.1552090   3.9976930  66.6089150  13.2191710   2.5006630  66.3928430
  16.7150270   3.7907320  68.9055360  16.4150410   3.9364500  68.0083180
  17.4861510   3.2312610  68.8128750  22.0578720   8.5876320  66.9010490
  22.0723260   7.6557280  66.6829400  21.3503820   8.6736080  67.5400260
  27.1915790   2.7716140  53.1709100  27.1079510   3.2030360  52.3205540
  27.9109980   3.2314490  53.6035920  28.2689930   5.2283660  66.2479070
  27.5438120   5.8212440  66.0508460  28.7965390   5.2207200  65.4492440
  28.2203040   9.6258400  55.8991230  27.5779200   8.9714020  56.1734950
  27.8333700  10.0313490  55.1231900  23.7989520   6.9543830  59.7462920
  24.1513340   6.3571960  59.0864290  22.9151850   6.6288060  59.9171170
  19.8852800   7.7141520  57.1533330  20.5723930   8.2610730  57.5340920
  19.0985220   8.2582250  57.1882940  12.0245200   3.3314340  52.6450410
  12.8940050   3.6139140  52.9286330  11.5335520   4.1450210  52.5299220
  19.1880010   4.7187550  56.7658690  19.6442790   5.5292800  56.9918880
  18.8368220   4.4010690  57.5977180  21.4912620  10.2293890  63.9950990
  22.1354840  10.4353270  64.6724410  21.8542060   9.4682290  63.5421840
  22.7644700   8.2326240  62.7128440  23.4066930   7.5319400  62.8260610
  23.2894050   9.0124680  62.5325330  26.6100420   8.5174860  52.4367580
  26.3838000   7.8005300  53.0292220  26.2196620   8.2687300  51.5989330
  24.5382320   9.0321140  65.9164500  24.8738560   9.6187830  66.5942420
  23.6182660   8.9013850  66.1462290  12.3916450  12.5441720  53.2112040
  12.7514090  13.1431060  52.5569310  12.2508790  13.0901610  53.9847070
  26.1916670   6.4346800  54.0981740  25.9038370   6.8959490  54.8859620
  26.9868840   5.9744570  54.3665960  12.3758310  10.8096580  67.6854440
  12.4849430   9.8691320  67.5449830  11.7238870  11.0751330  67.0368170
  20.3670900   9.0812470  69.0852560  20.0467770   8.3621710  69.6298250
  19.6929260   9.7567540  69.1588620  18.4085070   9.9272920  54.0285710
  18.3995170  10.6602610  53.4130220  17.4883430   9.6804500  54.1212670
  14.0091710   5.1487810  54.7732470  13.4019660   5.8886710  54.7827770
  14.4841060   5.2387170  53.9470670  21.3944670   9.9901160  52.6910900
  21.4956650   9.7865150  51.7612880  20.4946410   9.7359440  52.8958680
  20.0362780  12.5087480  57.3858570  20.2904280  12.4708870  56.4637940
  19.0875260  12.3820810  57.3786820  26.0415360   3.4279360  58.9617080
  25.1005500   3.4429590  59.1364770  26.3559430   2.6415320  59.4077380
  16.0197000   5.1098960  52.5221040  16.7860270   4.9980320  53.0846470
  16.0971690   4.4136930  51.8697810  28.0440940  10.5988210  60.6371340
  28.1688360  11.4219380  61.1095150  28.9106500  10.3878940  60.2895490
  15.5158470  12.6919420  60.3088470  16.2520950  12.1434880  60.5797040
  15.8999390  13.5575430  60.1694460  12.4003950   8.7592990  56.1829980
  11.4743730   9.0014130  56.1735390  12.8660380   9.5867250  56.0614730
  14.5216750  11.8765490  69.4974050  15.3229480  12.1977540  69.9109450
  14.0068570  11.5161070  70.2193960  18.6260780  11.8649730  52.1314040
  19.4189390  12.1538560  51.6795830  18.1065130  11.4341900  51.4526520
  23.3581380   7.9845360  69.4449460  22.7519540   8.0076960  68.7045210
  23.0535490   7.2528400  69.9816710  24.7881750  11.7125650  68.0558870
  25.7403500  11.6283670  68.0059110  24.6409970  12.3767360  68.7292660
  27.6790950  11.0919860  53.5550780  27.3932460  10.6785000  52.7404960
  27.4810500  12.0207570  53.4351300  12.2414560   4.3638950  68.4410100
  12.7453580   3.7846230  69.0126330  11.5021980   4.6479180  68.9786470
  19.1438180   7.0853140  51.9956390  19.0388820   6.4705490  52.7217770
  18.9762400   6.5619030  51.2119400  19.2952500   5.7709940  67.9745620
  18.5298170   6.3394940  67.8900290  19.4768460   5.4786150  67.0813850
  22.3840910   6.1473170  52.5998380  21.8351010   6.5942470  53.2441120
  23.0060170   5.6422420  53.1236050  26.4375850   7.5015270  68.5320640
  27.1785320   7.8391030  68.0288100  25.6748530   7.6707330  67.9790410
  14.2737640   2.5068540  69.3360170  14.3142980   2.2082410  70.2445400
  15.1283140   2.9076150  69.1767690  18.0516030   5.1064090  54.4963680
  18.4732450   4.9403960  55.3395070  18.1766870   4.2964320  54.0018820
  20.5643670   4.1301700  51.7440780  21.0849330   3.4150720  51.3781930
  21.2112070   4.7687570  52.0441290  25.1121510   5.5530100  67.0675850
  25.5262530   5.7075180  67.9166270  24.1772510   5.6785320  67.2301630
  25.5843680   2.8926260  69.0715000  26.1664450   2.1378580  68.9835480
  25.7605450   3.4233700  68.2946480  19.8736740   5.5050580  65.0371780
  20.2924850   6.3483310  64.8648020  18.9545370   5.6422620  64.8078560
  22.2100640   3.2366760  66.4209620  22.3296850   2.6407900  67.1604460
  23.0694640   3.2736450  66.0010920  24.5488540   3.7903950  64.9972130
  24.0223760   4.3146570  64.3937270  24.8919880   4.4231340  65.6281860
  17.7244160  11.8103590  66.1529510  17.1865250  12.5349650  65.8338210
  17.9778120  11.3333930  65.3626850  20.5806370  13.0454800  66.4116160
  20.5065070  13.9489940  66.7188530  19.6785210  12.7266700  66.3838230
  21.1291700  12.2113310  54.0342520  22.0242490  12.5498280  54.0561280
  21.1609330  11.4892720  53.4066800  14.7687860   7.5840360  52.2629520
  15.2062730   8.1270030  52.9187100  15.2535590   6.7587310  52.2725860
  11.9833660  10.3729390  59.7149780  12.3136670   9.5050450  59.4828420
  12.4124660  10.5787910  60.5454740  16.5795580   8.7038400  57.3751750
  16.2791120   8.5803370  58.2755660  16.4733070   7.8446990  56.9667480
  12.4723870  11.2399980  62.4531410  12.0354860  11.4200780  63.2855560
  13.0401550  11.9974600  62.3113130  28.1086050  10.7416980  66.7408720
  27.5088040  10.8009540  65.9972640  28.2379950   9.8021960  66.8705570
  29.3487500   8.4834800  52.0778430  28.5180460   8.5511450  52.5485660
  29.5259330   9.3738920  51.7745290  28.8043960   5.2282280  54.5812630
  29.5662870   5.7978930  54.6872320  28.8198330   4.6609480  55.3520940
  12.3048300   3.7520210  58.8120290  11.6497140   3.4831850  58.1679990
  13.1426250   3.6424690  58.3622270  29.8103930   6.0832380  59.4254560
  30.1812760   5.2999700  59.0190530  30.4505860   6.7721480  59.2471860
  26.7937690   7.4668960  64.8384880  25.9797530   7.8966120  65.1010670
  27.2011890   8.0787370  64.2253930  28.8563130   5.5216650  51.7385150
  29.1311970   6.4295530  51.6104370  28.6673870   5.4579180  52.6747140
  28.7528470   3.4585640  56.7314580  28.3772070   2.6913570  56.2995870
  28.0231590   3.8408340  57.2189510  13.3424230   4.1372780  63.3523630
  13.7097270   4.0500180  64.2319650  12.7735050   3.3739330  63.2530490
  28.1428090   2.6057160  66.3654100  27.9114180   2.3769910  65.4652050
  28.4032640   3.5256710  66.3198990  28.2069150   1.7683000  63.5541370
  27.2571860   1.7346540  63.6686360  28.3882160   2.6783110  63.3191140
  26.8513740  12.2187560  58.3653150  27.4472810  11.8972130  57.6887570
  27.1091890  11.7459380  59.1566420  14.7576310   8.6505470  68.5143780
  14.7145940   8.2798380  69.3958240  14.8887320   9.5883040  68.6545600
  18.4582340  10.2065060  64.1153500  18.2173700  10.4739620  63.2284020
  19.3984980  10.3770790  64.1704360  29.7186500  12.2259440  64.9164140
  29.2244780  12.6228310  64.1991270  29.1099790  11.6008650  65.3101420
  14.5964340  11.5967720  65.6341560  14.0024660  11.4652420  66.3731600
  14.5888180  10.7605860  65.1683660  27.4025950  12.8682860  62.1950880
  26.9428920  13.6198670  61.8208900  26.7738410  12.1489330  62.1365680
  14.2276570   8.9626100  64.5849600  13.5010630   8.3431390  64.5175550
  14.2885720   9.3566710  63.7147680  17.8321670  11.1771100  61.3699010
  18.3486690  10.5658460  60.8447270  18.4819050  11.6799880  61.8610020
  20.5717170  12.0679590  62.1967990  20.8594980  11.8133890  61.3201000
  21.0840390  11.5156950  62.7873560  12.5106570  12.2800490  57.7946360
  12.3428610  11.6471170  58.4928250  11.6441080  12.4859890  57.4440550
  14.1169270  10.9733720  55.2396500  13.5916890  11.3541750  54.5358460
  14.0413850  11.5984490  55.9606210  20.6389530  12.9895690  69.5636190
  21.5656840  12.7539960  69.6072150  20.6239960  13.8167690  69.0822220
  28.8734590  12.5321260  56.5610440  29.0486780  11.8459000  55.9171360
  28.1756160  13.0568310  56.1687110  16.7162240  12.9216100  54.1145750
  17.4481060  12.6375380  53.5669640  16.9755910  12.6829380  55.0045130
  15.8777030   9.0380830  54.1192080  15.2485910   9.5065930  54.6677910
  15.9924860   8.1930050  54.5538270  27.2067090  12.2165550  69.3877230
  27.9992410  11.7214780  69.1803190  27.5000240  12.8955690  69.9952840
  23.3326750   3.0886490  40.2693280  23.2520800   2.1741100  39.9984990
  22.9191170   3.5853560  39.5632990  21.4644790   4.8665510  42.1502550
  20.6886890   4.3865950  42.4401120  22.1157720   4.1871160  41.9758710
  15.4810620   5.1785320  43.0278310  14.6495500   4.9234030  43.4274820
  16.0891600   5.2496090  43.7636230  25.4852220   9.2725700  40.9301680
  25.0233750   8.5012940  41.2588850  26.2977770   9.2991770  41.4354130
  15.4611880   9.2125410  43.2236330  15.7639920   8.3223150  43.0446550
  16.2055470   9.7695630  42.9958580  11.8535580   2.7392860  42.6960400
  12.4251690   1.9715060  42.6964040  11.8537120   3.0381620  41.7867010
  21.7115530  11.5583710  40.5505670  21.0926970  12.0141210  39.9800110
  22.5667310  11.7135170  40.1495370  20.9053780   7.5422700  42.1572710
  20.8362060   6.6012640  41.9961840  21.6673640   7.6324110  42.7295280
  22.5778880   6.4422950  37.9437580  21.9596150   6.9072400  37.3800300
  23.0902130   7.1350430  38.3607090  17.4410640   5.9698820  44.6221180
  17.1080020   6.5967740  45.2642250  17.6177320   6.4960700  43.8422850
  16.6529740   7.9379620  46.4370360  17.2703740   8.6130700  46.1554810
  15.7922860   8.3467600  46.3457860  11.9462080   7.1279480  35.3177210
  11.5690060   7.6166580  34.5862110  12.2035150   7.8004760  35.9483740
  27.5707330   9.4019030  44.3525000  26.8870850  10.0718140  44.3441670
  28.1101620   9.5999680  43.5869860  25.1066070  11.2463160  43.0670180
  25.1193230  10.8425450  42.1992440  24.5541290  12.0210450  42.9631610
  26.4011490   7.9679380  38.1560350  26.2907820   7.0253710  38.2809770
  26.3979740   8.3295020  39.0423110  24.5051510   6.1493000  44.3952790
  24.9220300   5.9353110  43.5606250  25.2291330   6.4065790  44.9661410
  21.9431770   3.5944700  37.5122840  21.0161050   3.5282080  37.7411310
  22.0956590   4.5324830  37.3978080  28.4513610   4.5480220  44.4869030
  27.6232240   4.6173310  44.0119160  29.0464090   5.1334530  44.0184860
  25.9729060   5.1565000  38.0158090  25.3541480   4.8184550  37.3684390
  25.9553510   4.5124760  38.7237280  17.5488410   4.1209440  40.2942570
  17.1445410   3.4086690  39.7988470  17.6351530   3.7762680  41.1830610
  18.0170110   7.8077000  42.4581780  17.7198400   7.2022470  41.7789560
  18.9669930   7.8454310  42.3471140  26.1055720  11.3808870  46.1204880
  25.6286280  12.1881060  45.9277490  25.4217510  10.7287200  46.2731090
  17.1088540   7.5458690  49.1089580  16.2117070   7.7698660  49.3562980
  17.1341410   7.6693630  48.1600980  24.1493760   4.3951810  35.0230840
  24.5887040   3.5574240  34.8768660  24.8622180   5.0281210  35.1094980
  15.9359760   4.4172010  47.6846950  15.7967530   5.2894810  48.0534350
  15.0541120   4.0744820  47.5394890  22.2589140   9.3347880  38.9912080
  22.6985050  10.0772210  38.5767470  22.1976030   9.5774450  39.9151040
  17.7340110  10.3593710  49.8932100  17.7055540  10.7636660  49.0260530
  17.5705080   9.4304070  49.7303700  14.2493040   3.0154420  37.7949220
  14.1290640   3.7416510  37.1830490  13.9393930   2.2457330  37.3177130
  29.6854930  11.1420810  51.1896270  30.1614650  11.6203700  51.8685350
  30.3062090  11.0738300  50.4641770  11.8878410   6.1869560  43.6017860
  11.9658830   6.3218330  42.6573580  12.5020090   5.4785450  43.7945980
  13.1326040   7.8869750  40.0124040  12.7254120   8.0284340  39.1577640
  14.0239050   7.6029910  39.8095250  29.0888180   8.3333660  48.3496280
  29.2151240   8.0945540  47.4313460  29.1309560   7.5018200  48.8218360
  22.9504920  12.0361660  46.9191090  23.4649590  11.9469670  47.7213520
  22.1074000  12.3821360  47.2119000  24.9259320  12.3217000  36.3475090
  24.7660460  12.0319940  37.2456920  24.7606030  11.5457130  35.8120320
  17.4047700  12.1015530  38.1246710  17.2290180  11.1851070  37.9114510
  16.5503440  12.4602820  38.3644510  24.6285450   9.8304560  34.9073090
  23.9350610   9.8281850  34.2475370  25.3708310   9.4063880  34.4767260
  24.1935380  11.4567270  38.9821580  24.6492330  10.6756650  39.2960200
  24.5327900  12.1674090  39.5262760  11.9437930   7.2283730  46.1412320
  12.1068970   6.7589090  45.3231690  12.4090380   6.7207290  46.8061160
  22.9288690   2.7155720  43.6298850  22.1969810   3.2242530  43.9788950
  22.5313030   1.8985700  43.3287630  18.4407730   2.7023140  34.4241400
  17.8724630   2.2541390  33.7977310  19.1496730   3.0615920  33.8906550
  13.5176910   6.6035160  48.3008130  13.1331700   5.9628830  48.8991090
  13.8289100   7.3071280  48.8702860  19.6674050   3.4511700  43.7816750
  20.0344180   2.9770270  44.5278090  19.4779110   4.3253270  44.1225090
  17.4573420   2.4920340  46.1000960  17.1530490   3.3712320  46.3251320
  18.4119880   2.5520130  46.1358400  15.9855210   6.6981330  36.6967810
  15.2117470   6.1578950  36.5366530  16.7149840   6.1787940  36.3585570
  26.7443190   5.6946690  42.4894200  27.4642310   6.1901980  42.0990310
  26.5425010   5.0164580  41.8448070  22.1261990   5.7655750  48.3763200
  22.0599300   4.8451420  48.1220790  21.4967130   5.8631190  49.0907840
  16.0292610   6.3661710  40.3346620  16.5471280   5.5629970  40.2803510
  15.5776630   6.3040850  41.1763450  20.9162110   7.6327990  35.6073920
  21.2577810   8.3770220  35.1117240  20.0874820   7.9459110  35.9698750
  13.5137150   3.3323080  47.2472320  13.1552090   3.9976930  47.8345660
  13.2191710   2.5006630  47.6184940  16.7150270   3.7907320  50.1311870
  16.4150410   3.9364500  49.2339690  17.4861510   3.2312610  50.0385260
  22.0578720   8.5876320  48.1267000  22.0723260   7.6557280  47.9085910
  21.3503820   8.6736080  48.7656770  27.1915790   2.7716140  34.3965610
  27.1079510   3.2030360  33.5462050  27.9109980   3.2314490  34.8292430
  28.2689930   5.2283660  47.4735580  27.5438120   5.8212440  47.2764970
  28.7965390   5.2207200  46.6748950  28.2203040   9.6258400  37.1247740
  27.5779200   8.9714020  37.3991460  27.8333700  10.0313490  36.3488410
  23.7989520   6.9543830  40.9719430  24.1513340   6.3571960  40.3120800
  22.9151850   6.6288060  41.1427680  19.8852800   7.7141520  38.3789840
  20.5723930   8.2610730  38.7597430  19.0985220   8.2582250  38.4139450
  12.0245200   3.3314340  33.8706920  12.8940050   3.6139140  34.1542840
  11.5335520   4.1450210  33.7555730  19.1880010   4.7187550  37.9915200
  19.6442790   5.5292800  38.2175390  18.8368220   4.4010690  38.8233690
  21.4912620  10.2293890  45.2207500  22.1354840  10.4353270  45.8980920
  21.8542060   9.4682290  44.7678350  22.7644700   8.2326240  43.9384950
  23.4066930   7.5319400  44.0517120  23.2894050   9.0124680  43.7581840
  26.6100420   8.5174860  33.6624090  26.3838000   7.8005300  34.2548730
  26.2196620   8.2687300  32.8245840  24.5382320   9.0321140  47.1421010
  24.8738560   9.6187830  47.8198930  23.6182660   8.9013850  47.3718800
  12.3916450  12.5441720  34.4368550  12.7514090  13.1431060  33.7825820
  12.2508790  13.0901610  35.2103580  26.1916670   6.4346800  35.3238250
  25.9038370   6.8959490  36.1116130  26.9868840   5.9744570  35.5922470
  12.3758310  10.8096580  48.9110950  12.4849430   9.8691320  48.7706340
  11.7238870  11.0751330  48.2624680  20.3670900   9.0812470  50.3109070
  20.0467770   8.3621710  50.8554760  19.6929260   9.7567540  50.3845130
  18.4085070   9.9272920  35.2542220  18.3995170  10.6602610  34.6386730
  17.4883430   9.6804500  35.3469180  14.0091710   5.1487810  35.9988980
  13.4019660   5.8886710  36.0084280  14.4841060   5.2387170  35.1727180
  21.3944670   9.9901160  33.9167410  21.4956650   9.7865150  32.9869390
  20.4946410   9.7359440  34.1215190  20.0362780  12.5087480  38.6115080
  20.2904280  12.4708870  37.6894450  19.0875260  12.3820810  38.6043330
  26.0415360   3.4279360  40.1873590  25.1005500   3.4429590  40.3621280
  26.3559430   2.6415320  40.6333890  16.0197000   5.1098960  33.7477550
  16.7860270   4.9980320  34.3102980  16.0971690   4.4136930  33.0954320
  28.0440940  10.5988210  41.8627850  28.1688360  11.4219380  42.3351660
  28.9106500  10.3878940  41.5152000  15.5158470  12.6919420  41.5344980
  16.2520950  12.1434880  41.8053550  15.8999390  13.5575430  41.3950970
  12.4003950   8.7592990  37.4086490  11.4743730   9.0014130  37.3991900
  12.8660380   9.5867250  37.2871240  14.5216750  11.8765490  50.7230560
  15.3229480  12.1977540  51.1365960  14.0068570  11.5161070  51.4450470
  18.6260780  11.8649730  33.3570550  19.4189390  12.1538560  32.9052340
  18.1065130  11.4341900  32.6783030  23.3581380   7.9845360  50.6705970
  22.7519540   8.0076960  49.9301720  23.0535490   7.2528400  51.2073220
  24.7881750  11.7125650  49.2815380  25.7403500  11.6283670  49.2315620
  24.6409970  12.3767360  49.9549170  27.6790950  11.0919860  34.7807290
  27.3932460  10.6785000  33.9661470  27.4810500  12.0207570  34.6607810
  12.2414560   4.3638950  49.6666610  12.7453580   3.7846230  50.2382840
  11.5021980   4.6479180  50.2042980  19.1438180   7.0853140  33.2212900
  19.0388820   6.4705490  33.9474280  18.9762400   6.5619030  32.4375910
  19.2952500   5.7709940  49.2002130  18.5298170   6.3394940  49.1156800
  19.4768460   5.4786150  48.3070360  22.3840910   6.1473170  33.8254890
  21.8351010   6.5942470  34.4697630  23.0060170   5.6422420  34.3492560
  26.4375850   7.5015270  49.7577150  27.1785320   7.8391030  49.2544610
  25.6748530   7.6707330  49.2046920  14.2737640   2.5068540  50.5616680
  14.3142980   2.2082410  51.4701910  15.1283140   2.9076150  50.4024200
  18.0516030   5.1064090  35.7220190  18.4732450   4.9403960  36.5651580
  18.1766870   4.2964320  35.2275330  20.5643670   4.1301700  32.9697290
  21.0849330   3.4150720  32.6038440  21.2112070   4.7687570  33.2697800
  25.1121510   5.5530100  48.2932360  25.5262530   5.7075180  49.1422780
  24.1772510   5.6785320  48.4558140  25.5843680   2.8926260  50.2971510
  26.1664450   2.1378580  50.2091990  25.7605450   3.4233700  49.5202990
  19.8736740   5.5050580  46.2628290  20.2924850   6.3483310  46.0904530
  18.9545370   5.6422620  46.0335070  22.2100640   3.2366760  47.6466130
  22.3296850   2.6407900  48.3860970  23.0694640   3.2736450  47.2267430
  24.5488540   3.7903950  46.2228640  24.0223760   4.3146570  45.6193780
  24.8919880   4.4231340  46.8538370  17.7244160  11.8103590  47.3786020
  17.1865250  12.5349650  47.0594720  17.9778120  11.3333930  46.5883360
  20.5806370  13.0454800  47.6372670  20.5065070  13.9489940  47.9445040
  19.6785210  12.7266700  47.6094740  21.1291700  12.2113310  35.2599030
  22.0242490  12.5498280  35.2817790  21.1609330  11.4892720  34.6323310
  14.7687860   7.5840360  33.4886030  15.2062730   8.1270030  34.1443610
  15.2535590   6.7587310  33.4982370  11.9833660  10.3729390  40.9406290
  12.3136670   9.5050450  40.7084930  12.4124660  10.5787910  41.7711250
  16.5795580   8.7038400  38.6008260  16.2791120   8.5803370  39.5012170
  16.4733070   7.8446990  38.1923990  12.4723870  11.2399980  43.6787920
  12.0354860  11.4200780  44.5112070  13.0401550  11.9974600  43.5369640
  28.1086050  10.7416980  47.9665230  27.5088040  10.8009540  47.2229150
  28.2379950   9.8021960  48.0962080  29.3487500   8.4834800  33.3034940
  28.5180460   8.5511450  33.7742170  29.5259330   9.3738920  33.0001800
  28.8043960   5.2282280  35.8069140  29.5662870   5.7978930  35.9128830
  28.8198330   4.6609480  36.5777450  12.3048300   3.7520210  40.0376800
  11.6497140   3.4831850  39.3936500  13.1426250   3.6424690  39.5878780
  29.8103930   6.0832380  40.6511070  30.1812760   5.2999700  40.2447040
  30.4505860   6.7721480  40.4728370  26.7937690   7.4668960  46.0641390
  25.9797530   7.8966120  46.3267180  27.2011890   8.0787370  45.4510440
  28.8563130   5.5216650  32.9641660  29.1311970   6.4295530  32.8360880
  28.6673870   5.4579180  33.9003650  28.7528470   3.4585640  37.9571090
  28.3772070   2.6913570  37.5252380  28.0231590   3.8408340  38.4446020
  13.3424230   4.1372780  44.5780140  13.7097270   4.0500180  45.4576160
  12.7735050   3.3739330  44.4787000  28.1428090   2.6057160  47.5910610
  27.9114180   2.3769910  46.6908560  28.4032640   3.5256710  47.5455500
  28.2069150   1.7683000  44.7797880  27.2571860   1.7346540  44.8942870
  28.3882160   2.6783110  44.5447650  26.8513740  12.2187560  39.5909660
  27.4472810  11.8972130  38.9144080  27.1091890  11.7459380  40.3822930
  14.7576310   8.6505470  49.7400290  14.7145940   8.2798380  50.6214750
  14.8887320   9.5883040  49.8802110  18.4582340  10.2065060  45.3410010
  18.2173700  10.4739620  44.4540530  19.3984980  10.3770790  45.3960870
  29.7186500  12.2259440  46.1420650  29.2244780  12.6228310  45.4247780
  29.1099790  11.6008650  46.5357930  14.5964340  11.5967720  46.8598070
  14.0024660  11.4652420  47.5988110  14.5888180  10.7605860  46.3940170
  27.4025950  12.8682860  43.4207390  26.9428920  13.6198670  43.0465410
  26.7738410  12.1489330  43.3622190  14.2276570   8.9626100  45.8106110
  13.5010630   8.3431390  45.7432060  14.2885720   9.3566710  44.9404190
  17.8321670  11.1771100  42.5955520  18.3486690  10.5658460  42.0703780
  18.4819050  11.6799880  43.0866530  20.5717170  12.0679590  43.4224500
  20.8594980  11.8133890  42.5457510  21.0840390  11.5156950  44.0130070
  12.5106570  12.2800490  39.0202870  12.3428610  11.6471170  39.7184760
  11.6441080  12.4859890  38.6697060  14.1169270  10.9733720  36.4653010
  13.5916890  11.3541750  35.7614970  14.0413850  11.5984490  37.1862720
  20.6389530  12.9895690  50.7892700  21.5656840  12.7539960  50.8328660
  20.6239960  13.8167690  50.3078730  28.8734590  12.5321260  37.7866950
  29.0486780  11.8459000  37.1427870  28.1756160  13.0568310  37.3943620
  16.7162240  12.9216100  35.3402260  17.4481060  12.6375380  34.7926150
  16.9755910  12.6829380  36.2301640  15.8777030   9.0380830  35.3448590
  15.2485910   9.5065930  35.8934420  15.9924860   8.1930050  35.7794780
  27.2067090  12.2165550  50.6133740  27.9992410  11.7214780  50.4059700
  27.5000240  12.8955690  51.2209350  23.3326750   3.0886490  21.4949790
  23.2520800   2.1741100  21.2241500  22.9191170   3.5853560  20.7889500
  21.4644790   4.8665510  23.3759060  20.6886890   4.3865950  23.6657630
  22.1157720   4.1871160  23.2015220  15.4810620   5.1785320  24.2534820
  14.6495500   4.9234030  24.6531330  16.0891600   5.2496090  24.9892740
  25.4852220   9.2725700  22.1558190  25.0233750   8.5012940  22.4845360
  26.2977770   9.2991770  22.6610640  15.4611880   9.2125410  24.4492840
  15.7639920   8.3223150  24.2703060  16.2055470   9.7695630  24.2215090
  11.8535580   2.7392860  23.9216910  12.4251690   1.9715060  23.9220550
  11.8537120   3.0381620  23.0123520  21.7115530  11.5583710  21.7762180
  21.0926970  12.0141210  21.2056620  22.5667310  11.7135170  21.3751880
  20.9053780   7.5422700  23.3829220  20.8362060   6.6012640  23.2218350
  21.6673640   7.6324110  23.9551790  22.5778880   6.4422950  19.1694090
  21.9596150   6.9072400  18.6056810  23.0902130   7.1350430  19.5863600
  17.4410640   5.9698820  25.8477690  17.1080020   6.5967740  26.4898760
  17.6177320   6.4960700  25.0679360  16.6529740   7.9379620  27.6626870
  17.2703740   8.6130700  27.3811320  15.7922860   8.3467600  27.5714370
  11.9462080   7.1279480  16.5433720  11.5690060   7.6166580  15.8118620
  12.2035150   7.8004760  17.1740250  27.5707330   9.4019030  25.5781510
  26.8870850  10.0718140  25.5698180  28.1101620   9.5999680  24.8126370
  25.1066070  11.2463160  24.2926690  25.1193230  10.8425450  23.4248950
  24.5541290  12.0210450  24.1888120  26.4011490   7.9679380  19.3816860
  26.2907820   7.0253710  19.5066280  26.3979740   8.3295020  20.2679620
  24.5051510   6.1493000  25.6209300  24.9220300   5.9353110  24.7862760
  25.2291330   6.4065790  26.1917920  21.9431770   3.5944700  18.7379350
  21.0161050   3.5282080  18.9667820  22.0956590   4.5324830  18.6234590
  28.4513610   4.5480220  25.7125540  27.6232240   4.6173310  25.2375670
  29.0464090   5.1334530  25.2441370  25.9729060   5.1565000  19.2414600
  25.3541480   4.8184550  18.5940900  25.9553510   4.5124760  19.9493790
  17.5488410   4.1209440  21.5199080  17.1445410   3.4086690  21.0244980
  17.6351530   3.7762680  22.4087120  18.0170110   7.8077000  23.6838290
  17.7198400   7.2022470  23.0046070  18.9669930   7.8454310  23.5727650
  26.1055720  11.3808870  27.3461390  25.6286280  12.1881060  27.1534000
  25.4217510  10.7287200  27.4987600  17.1088540   7.5458690  30.3346090
  16.2117070   7.7698660  30.5819490  17.1341410   7.6693630  29.3857490
  24.1493760   4.3951810  16.2487350  24.5887040   3.5574240  16.1025170
  24.8622180   5.0281210  16.3351490  15.9359760   4.4172010  28.9103460
  15.7967530   5.2894810  29.2790860  15.0541120   4.0744820  28.7651400
  22.2589140   9.3347880  20.2168590  22.6985050  10.0772210  19.8023980
  22.1976030   9.5774450  21.1407550  17.7340110  10.3593710  31.1188610
  17.7055540  10.7636660  30.2517040  17.5705080   9.4304070  30.9560210
  14.2493040   3.0154420  19.0205730  14.1290640   3.7416510  18.4087000
  13.9393930   2.2457330  18.5433640  29.6854930  11.1420810  32.4152780
  30.1614650  11.6203700  33.0941860  30.3062090  11.0738300  31.6898280
  11.8878410   6.1869560  24.8274370  11.9658830   6.3218330  23.8830090
  12.5020090   5.4785450  25.0202490  13.1326040   7.8869750  21.2380550
  12.7254120   8.0284340  20.3834150  14.0239050   7.6029910  21.0351760
  29.0888180   8.3333660  29.5752790  29.2151240   8.0945540  28.6569970
  29.1309560   7.5018200  30.0474870  22.9504920  12.0361660  28.1447600
  23.4649590  11.9469670  28.9470030  22.1074000  12.3821360  28.4375510
  24.9259320  12.3217000  17.5731600  24.7660460  12.0319940  18.4713430
  24.7606030  11.5457130  17.0376830  17.4047700  12.1015530  19.3503220
  17.2290180  11.1851070  19.1371020  16.5503440  12.4602820  19.5901020
  24.6285450   9.8304560  16.1329600  23.9350610   9.8281850  15.4731880
  25.3708310   9.4063880  15.7023770  24.1935380  11.4567270  20.2078090
  24.6492330  10.6756650  20.5216710  24.5327900  12.1674090  20.7519270
  11.9437930   7.2283730  27.3668830  12.1068970   6.7589090  26.5488200
  12.4090380   6.7207290  28.0317670  22.9288690   2.7155720  24.8555360
  22.1969810   3.2242530  25.2045460  22.5313030   1.8985700  24.5544140
  18.4407730   2.7023140  15.6497910  17.8724630   2.2541390  15.0233820
  19.1496730   3.0615920  15.1163060  13.5176910   6.6035160  29.5264640
  13.1331700   5.9628830  30.1247600  13.8289100   7.3071280  30.0959370
  19.6674050   3.4511700  25.0073260  20.0344180   2.9770270  25.7534600
  19.4779110   4.3253270  25.3481600  17.4573420   2.4920340  27.3257470
  17.1530490   3.3712320  27.5507830  18.4119880   2.5520130  27.3614910
  15.9855210   6.6981330  17.9224320  15.2117470   6.1578950  17.7623040
  16.7149840   6.1787940  17.5842080  26.7443190   5.6946690  23.7150710
  27.4642310   6.1901980  23.3246820  26.5425010   5.0164580  23.0704580
  22.1261990   5.7655750  29.6019710  22.0599300   4.8451420  29.3477300
  21.4967130   5.8631190  30.3164350  16.0292610   6.3661710  21.5603130
  16.5471280   5.5629970  21.5060020  15.5776630   6.3040850  22.4019960
  20.9162110   7.6327990  16.8330430  21.2577810   8.3770220  16.3373750
  20.0874820   7.9459110  17.1955260  13.5137150   3.3323080  28.4728830
  13.1552090   3.9976930  29.0602170  13.2191710   2.5006630  28.8441450
  16.7150270   3.7907320  31.3568380  16.4150410   3.9364500  30.4596200
  17.4861510   3.2312610  31.2641770  22.0578720   8.5876320  29.3523510
  22.0723260   7.6557280  29.1342420  21.3503820   8.6736080  29.9913280
  27.1915790   2.7716140  15.6222120  27.1079510   3.2030360  14.7718560
  27.9109980   3.2314490  16.0548940  28.2689930   5.2283660  28.6992090
  27.5438120   5.8212440  28.5021480  28.7965390   5.2207200  27.9005460
  28.2203040   9.6258400  18.3504250  27.5779200   8.9714020  18.6247970
  27.8333700  10.0313490  17.5744920  23.7989520   6.9543830  22.1975940
  24.1513340   6.3571960  21.5377310  22.9151850   6.6288060  22.3684190
  19.8852800   7.7141520  19.6046350  20.5723930   8.2610730  19.9853940
  19.0985220   8.2582250  19.6395960  12.0245200   3.3314340  15.0963430
  12.8940050   3.6139140  15.3799350  11.5335520   4.1450210  14.9812240
  19.1880010   4.7187550  19.2171710  19.6442790   5.5292800  19.4431900
  18.8368220   4.4010690  20.0490200  21.4912620  10.2293890  26.4464010
  22.1354840  10.4353270  27.1237430  21.8542060   9.4682290  25.9934860
  22.7644700   8.2326240  25.1641460  23.4066930   7.5319400  25.2773630
  23.2894050   9.0124680  24.9838350  26.6100420   8.5174860  14.8880600
  26.3838000   7.8005300  15.4805240  26.2196620   8.2687300  14.0502350
  24.5382320   9.0321140  28.3677520  24.8738560   9.6187830  29.0455440
  23.6182660   8.9013850  28.5975310  12.3916450  12.5441720  15.6625060
  12.7514090  13.1431060  15.0082330  12.2508790  13.0901610  16.4360090
  26.1916670   6.4346800  16.5494760  25.9038370   6.8959490  17.3372640
  26.9868840   5.9744570  16.8178980  12.3758310  10.8096580  30.1367460
  12.4849430   9.8691320  29.9962850  11.7238870  11.0751330  29.4881190
  20.3670900   9.0812470  31.5365580  20.0467770   8.3621710  32.0811270
  19.6929260   9.7567540  31.6101640  18.4085070   9.9272920  16.4798730
  18.3995170  10.6602610  15.8643240  17.4883430   9.6804500  16.5725690
  14.0091710   5.1487810  17.2245490  13.4019660   5.8886710  17.2340790
  14.4841060   5.2387170  16.3983690  21.3944670   9.9901160  15.1423920
  21.4956650   9.7865150  14.2125900  20.4946410   9.7359440  15.3471700
  20.0362780  12.5087480  19.8371590  20.2904280  12.4708870  18.9150960
  19.0875260  12.3820810  19.8299840  26.0415360   3.4279360  21.4130100
  25.1005500   3.4429590  21.5877790  26.3559430   2.6415320  21.8590400
  16.0197000   5.1098960  14.9734060  16.7860270   4.9980320  15.5359490
  16.0971690   4.4136930  14.3210830  28.0440940  10.5988210  23.0884360
  28.1688360  11.4219380  23.5608170  28.9106500  10.3878940  22.7408510
  15.5158470  12.6919420  22.7601490  16.2520950  12.1434880  23.0310060
  15.8999390  13.5575430  22.6207480  12.4003950   8.7592990  18.6343000
  11.4743730   9.0014130  18.6248410  12.8660380   9.5867250  18.5127750
  14.5216750  11.8765490  31.9487070  15.3229480  12.1977540  32.3622470
  14.0068570  11.5161070  32.6706980  18.6260780  11.8649730  14.5827060
  19.4189390  12.1538560  14.1308850  18.1065130  11.4341900  13.9039540
  23.3581380   7.9845360  31.8962480  22.7519540   8.0076960  31.1558230
  23.0535490   7.2528400  32.4329730  24.7881750  11.7125650  30.5071890
  25.7403500  11.6283670  30.4572130  24.6409970  12.3767360  31.1805680
  27.6790950  11.0919860  16.0063800  27.3932460  10.6785000  15.1917980
  27.4810500  12.0207570  15.8864320  12.2414560   4.3638950  30.8923120
  12.7453580   3.7846230  31.4639350  11.5021980   4.6479180  31.4299490
  19.1438180   7.0853140  14.4469410  19.0388820   6.4705490  15.1730790
  18.9762400   6.5619030  13.6632420  19.2952500   5.7709940  30.4258640
  18.5298170   6.3394940  30.3413310  19.4768460   5.4786150  29.5326870
  22.3840910   6.1473170  15.0511400  21.8351010   6.5942470  15.6954140
  23.0060170   5.6422420  15.5749070  26.4375850   7.5015270  30.9833660
  27.1785320   7.8391030  30.4801120  25.6748530   7.6707330  30.4303430
  14.2737640   2.5068540  31.7873190  14.3142980   2.2082410  32.6958420
  15.1283140   2.9076150  31.6280710  18.0516030   5.1064090  16.9476700
  18.4732450   4.9403960  17.7908090  18.1766870   4.2964320  16.4531840
  20.5643670   4.1301700  14.1953800  21.0849330   3.4150720  13.8294950
  21.2112070   4.7687570  14.4954310  25.1121510   5.5530100  29.5188870
  25.5262530   5.7075180  30.3679290  24.1772510   5.6785320  29.6814650
  25.5843680   2.8926260  31.5228020  26.1664450   2.1378580  31.4348500
  25.7605450   3.4233700  30.7459500  19.8736740   5.5050580  27.4884800
  20.2924850   6.3483310  27.3161040  18.9545370   5.6422620  27.2591580
  22.2100640   3.2366760  28.8722640  22.3296850   2.6407900  29.6117480
  23.0694640   3.2736450  28.4523940  24.5488540   3.7903950  27.4485150
  24.0223760   4.3146570  26.8450290  24.8919880   4.4231340  28.0794880
  17.7244160  11.8103590  28.6042530  17.1865250  12.5349650  28.2851230
  17.9778120  11.3333930  27.8139870  20.5806370  13.0454800  28.8629180
  20.5065070  13.9489940  29.1701550  19.6785210  12.7266700  28.8351250
  21.1291700  12.2113310  16.4855540  22.0242490  12.5498280  16.5074300
  21.1609330  11.4892720  15.8579820  14.7687860   7.5840360  14.7142540
  15.2062730   8.1270030  15.3700120  15.2535590   6.7587310  14.7238880
  11.9833660  10.3729390  22.1662800  12.3136670   9.5050450  21.9341440
  12.4124660  10.5787910  22.9967760  16.5795580   8.7038400  19.8264770
  16.2791120   8.5803370  20.7268680  16.4733070   7.8446990  19.4180500
  12.4723870  11.2399980  24.9044430  12.0354860  11.4200780  25.7368580
  13.0401550  11.9974600  24.7626150  28.1086050  10.7416980  29.1921740
  27.5088040  10.8009540  28.4485660  28.2379950   9.8021960  29.3218590
  29.3487500   8.4834800  14.5291450  28.5180460   8.5511450  14.9998680
  29.5259330   9.3738920  14.2258310  28.8043960   5.2282280  17.0325650
  29.5662870   5.7978930  17.1385340  28.8198330   4.6609480  17.8033960
  12.3048300   3.7520210  21.2633310  11.6497140   3.4831850  20.6193010
  13.1426250   3.6424690  20.8135290  29.8103930   6.0832380  21.8767580
  30.1812760   5.2999700  21.4703550  30.4505860   6.7721480  21.6984880
  26.7937690   7.4668960  27.2897900  25.9797530   7.8966120  27.5523690
  27.2011890   8.0787370  26.6766950  28.8563130   5.5216650  14.1898170
  29.1311970   6.4295530  14.0617390  28.6673870   5.4579180  15.1260160
  28.7528470   3.4585640  19.1827600  28.3772070   2.6913570  18.7508890
  28.0231590   3.8408340  19.6702530  13.3424230   4.1372780  25.8036650
  13.7097270   4.0500180  26.6832670  12.7735050   3.3739330  25.7043510
  28.1428090   2.6057160  28.8167120  27.9114180   2.3769910  27.9165070
  28.4032640   3.5256710  28.7712010  28.2069150   1.7683000  26.0054390
  27.2571860   1.7346540  26.1199380  28.3882160   2.6783110  25.7704160
  26.8513740  12.2187560  20.8166170  27.4472810  11.8972130  20.1400590
  27.1091890  11.7459380  21.6079440  14.7576310   8.6505470  30.9656800
  14.7145940   8.2798380  31.8471260  14.8887320   9.5883040  31.1058620
  18.4582340  10.2065060  26.5666520  18.2173700  10.4739620  25.6797040
  19.3984980  10.3770790  26.6217380  29.7186500  12.2259440  27.3677160
  29.2244780  12.6228310  26.6504290  29.1099790  11.6008650  27.7614440
  14.5964340  11.5967720  28.0854580  14.0024660  11.4652420  28.8244620
  14.5888180  10.7605860  27.6196680  27.4025950  12.8682860  24.6463900
  26.9428920  13.6198670  24.2721920  26.7738410  12.1489330  24.5878700
  14.2276570   8.9626100  27.0362620  13.5010630   8.3431390  26.9688570
  14.2885720   9.3566710  26.1660700  17.8321670  11.1771100  23.8212030
  18.3486690  10.5658460  23.2960290  18.4819050  11.6799880  24.3123040
  20.5717170  12.0679590  24.6481010  20.8594980  11.8133890  23.7714020
  21.0840390  11.5156950  25.2386580  12.5106570  12.2800490  20.2459380
  12.3428610  11.6471170  20.9441270  11.6441080  12.4859890  19.8953570
  14.1169270  10.9733720  17.6909520  13.5916890  11.3541750  16.9871480
  14.0413850  11.5984490  18.4119230  20.6389530  12.9895690  32.0149210
  21.5656840  12.7539960  32.0585170  20.6239960  13.8167690  31.5335240
  28.8734590  12.5321260  19.0123460  29.0486780  11.8459000  18.3684380
  28.1756160  13.0568310  18.6200130  16.7162240  12.9216100  16.5658770
  17.4481060  12.6375380  16.0182660  16.9755910  12.6829380  17.4558150
  15.8777030   9.0380830  16.5705100  15.2485910   9.5065930  17.1190930
  15.9924860   8.1930050  17.0051290  27.2067090  12.2165550  31.8390250
  27.9992410  11.7214780  31.6316210  27.5000240  12.8955690  32.4465860
  23.3326750   3.0886490   2.7206300  23.2520800   2.1741100   2.4498010
  22.9191170   3.5853560   2.0146010  21.4644790   4.8665510   4.6015570
  20.6886890   4.3865950   4.8914140  22.1157720   4.1871160   4.4271730
  15.4810620   5.1785320   5.4791330  14.6495500   4.9234030   5.8787840
  16.0891600   5.2496090   6.2149250  25.4852220   9.2725700   3.3814700
  25.0233750   8.5012940   3.7101870  26.2977770   9.2991770   3.8867150
  15.4611880   9.2125410   5.6749350  15.7639920   8.3223150   5.4959570
  16.2055470   9.7695630   5.4471600  11.8535580   2.7392860   5.1473420
  12.4251690   1.9715060   5.1477060  11.8537120   3.0381620   4.2380030
  21.7115530  11.5583710   3.0018690  21.0926970  12.0141210   2.4313130
  22.5667310  11.7135170   2.6008390  20.9053780   7.5422700   4.6085730
  20.8362060   6.6012640   4.4474860  21.6673640   7.6324110   5.1808300
  17.4410640   5.9698820   7.0734200  17.1080020   6.5967740   7.7155270
  17.6177320   6.4960700   6.2935870  16.6529740   7.9379620   8.8883380
  17.2703740   8.6130700   8.6067830  15.7922860   8.3467600   8.7970880
  27.5707330   9.4019030   6.8038020  26.8870850  10.0718140   6.7954690
  28.1101620   9.5999680   6.0382880  25.1066070  11.2463160   5.5183200
  25.1193230  10.8425450   4.6505460  24.5541290  12.0210450   5.4144630
  24.5051510   6.1493000   6.8465810  24.9220300   5.9353110   6.0119270
  25.2291330   6.4065790   7.4174430  28.4513610   4.5480220   6.9382050
  27.6232240   4.6173310   6.4632180  29.0464090   5.1334530   6.4697880
  17.5488410   4.1209440   2.7455590  17.1445410   3.4086690   2.2501490
  17.6351530   3.7762680   3.6343630  18.0170110   7.8077000   4.9094800
  17.7198400   7.2022470   4.2302580  18.9669930   7.8454310   4.7984160
  26.1055720  11.3808870   8.5717900  25.6286280  12.1881060   8.3790510
  25.4217510  10.7287200   8.7244110  17.1088540   7.5458690  11.5602600
  16.2117070   7.7698660  11.8076000  17.1341410   7.6693630  10.6114000
  15.9359760   4.4172010  10.1359970  15.7967530   5.2894810  10.5047370
  15.0541120   4.0744820   9.9907910  17.7340110  10.3593710  12.3445120
  17.7055540  10.7636660  11.4773550  17.5705080   9.4304070  12.1816720
  29.6854930  11.1420810  13.6409290  30.1614650  11.6203700  14.3198370
  30.3062090  11.0738300  12.9154790  11.8878410   6.1869560   6.0530880
  11.9658830   6.3218330   5.1086600  12.5020090   5.4785450   6.2459000
  29.0888180   8.3333660  10.8009300  29.2151240   8.0945540   9.8826480
  29.1309560   7.5018200  11.2731380  22.9504920  12.0361660   9.3704110
  23.4649590  11.9469670  10.1726540  22.1074000  12.3821360   9.6632020
  11.9437930   7.2283730   8.5925340  12.1068970   6.7589090   7.7744710
  12.4090380   6.7207290   9.2574180  22.9288690   2.7155720   6.0811870
  22.1969810   3.2242530   6.4301970  22.5313030   1.8985700   5.7800650
  13.5176910   6.6035160  10.7521150  13.1331700   5.9628830  11.3504110
  13.8289100   7.3071280  11.3215880  19.6674050   3.4511700   6.2329770
  20.0344180   2.9770270   6.9791110  19.4779110   4.3253270   6.5738110
  17.4573420   2.4920340   8.5513980  17.1530490   3.3712320   8.7764340
  18.4119880   2.5520130   8.5871420  26.7443190   5.6946690   4.9407220
  27.4642310   6.1901980   4.5503330  26.5425010   5.0164580   4.2961090
  22.1261990   5.7655750  10.8276220  22.0599300   4.8451420  10.5733810
  21.4967130   5.8631190  11.5420860  16.0292610   6.3661710   2.7859640
  16.5471280   5.5629970   2.7316530  15.5776630   6.3040850   3.6276470
  13.5137150   3.3323080   9.6985340  13.1552090   3.9976930  10.2858680
  13.2191710   2.5006630  10.0697960  16.7150270   3.7907320  12.5824890
  16.4150410   3.9364500  11.6852710  17.4861510   3.2312610  12.4898280
  22.0578720   8.5876320  10.5780020  22.0723260   7.6557280  10.3598930
  21.3503820   8.6736080  11.2169790  28.2689930   5.2283660   9.9248600
  27.5438120   5.8212440   9.7277990  28.7965390   5.2207200   9.1261970
  23.7989520   6.9543830   3.4232450  24.1513340   6.3571960   2.7633820
  22.9151850   6.6288060   3.5940700  21.4912620  10.2293890   7.6720520
  22.1354840  10.4353270   8.3493940  21.8542060   9.4682290   7.2191370
  22.7644700   8.2326240   6.3897970  23.4066930   7.5319400   6.5030140
  23.2894050   9.0124680   6.2094860  24.5382320   9.0321140   9.5934030
  24.8738560   9.6187830  10.2711950  23.6182660   8.9013850   9.8231820
  12.3758310  10.8096580  11.3623970  12.4849430   9.8691320  11.2219360
  11.7238870  11.0751330  10.7137700  20.3670900   9.0812470  12.7622090
  20.0467770   8.3621710  13.3067780  19.6929260   9.7567540  12.8358150
  26.0415360   3.4279360   2.6386610  25.1005500   3.4429590   2.8134300
  26.3559430   2.6415320   3.0846910  28.0440940  10.5988210   4.3140870
  28.1688360  11.4219380   4.7864680  28.9106500  10.3878940   3.9665020
  15.5158470  12.6919420   3.9858000  16.2520950  12.1434880   4.2566570
  15.8999390  13.5575430   3.8463990  14.5216750  11.8765490  13.1743580
  15.3229480  12.1977540  13.5878980  14.0068570  11.5161070  13.8963490
  23.3581380   7.9845360  13.1218990  22.7519540   8.0076960  12.3814740
  23.0535490   7.2528400  13.6586240  24.7881750  11.7125650  11.7328400
  25.7403500  11.6283670  11.6828640  24.6409970  12.3767360  12.4062190
  12.2414560   4.3638950  12.1179630  12.7453580   3.7846230  12.6895860
  11.5021980   4.6479180  12.6556000  19.2952500   5.7709940  11.6515150
  18.5298170   6.3394940  11.5669820  19.4768460   5.4786150  10.7583380
  26.4375850   7.5015270  12.2090170  27.1785320   7.8391030  11.7057630
  25.6748530   7.6707330  11.6559940  14.2737640   2.5068540  13.0129700
  14.3142980   2.2082410  13.9214930  15.1283140   2.9076150  12.8537220
  25.1121510   5.5530100  10.7445380  25.5262530   5.7075180  11.5935800
  24.1772510   5.6785320  10.9071160  25.5843680   2.8926260  12.7484530
  26.1664450   2.1378580  12.6605010  25.7605450   3.4233700  11.9716010
  19.8736740   5.5050580   8.7141310  20.2924850   6.3483310   8.5417550
  18.9545370   5.6422620   8.4848090  22.2100640   3.2366760  10.0979150
  22.3296850   2.6407900  10.8373990  23.0694640   3.2736450   9.6780450
  24.5488540   3.7903950   8.6741660  24.0223760   4.3146570   8.0706800
  24.8919880   4.4231340   9.3051390  17.7244160  11.8103590   9.8299040
  17.1865250  12.5349650   9.5107740  17.9778120  11.3333930   9.0396380
  20.5806370  13.0454800  10.0885690  20.5065070  13.9489940  10.3958060
  19.6785210  12.7266700  10.0607760  11.9833660  10.3729390   3.3919310
  12.3136670   9.5050450   3.1597950  12.4124660  10.5787910   4.2224270
  12.4723870  11.2399980   6.1300940  12.0354860  11.4200780   6.9625090
  13.0401550  11.9974600   5.9882660  28.1086050  10.7416980  10.4178250
  27.5088040  10.8009540   9.6742170  28.2379950   9.8021960  10.5475100
  12.3048300   3.7520210   2.4889820  11.6497140   3.4831850   1.8449520
  13.1426250   3.6424690   2.0391800  29.8103930   6.0832380   3.1024090
  30.1812760   5.2999700   2.6960060  30.4505860   6.7721480   2.9241390
  26.7937690   7.4668960   8.5154410  25.9797530   7.8966120   8.7780200
  27.2011890   8.0787370   7.9023460  13.3424230   4.1372780   7.0293160
  13.7097270   4.0500180   7.9089180  12.7735050   3.3739330   6.9300020
  28.1428090   2.6057160  10.0423630  27.9114180   2.3769910   9.1421580
  28.4032640   3.5256710   9.9968520  28.2069150   1.7683000   7.2310900
  27.2571860   1.7346540   7.3455890  28.3882160   2.6783110   6.9960670
  14.7576310   8.6505470  12.1913310  14.7145940   8.2798380  13.0727770
  14.8887320   9.5883040  12.3315130  18.4582340  10.2065060   7.7923030
  18.2173700  10.4739620   6.9053550  19.3984980  10.3770790   7.8473890
  29.7186500  12.2259440   8.5933670  29.2244780  12.6228310   7.8760800
  29.1099790  11.6008650   8.9870950  14.5964340  11.5967720   9.3111090
  14.0024660  11.4652420  10.0501130  14.5888180  10.7605860   8.8453190
  27.4025950  12.8682860   5.8720410  26.9428920  13.6198670   5.4978430
  26.7738410  12.1489330   5.8135210  14.2276570   8.9626100   8.2619130
  13.5010630   8.3431390   8.1945080  14.2885720   9.3566710   7.3917210
  17.8321670  11.1771100   5.0468540  18.3486690  10.5658460   4.5216800
  18.4819050  11.6799880   5.5379550  20.5717170  12.0679590   5.8737520
  20.8594980  11.8133890   4.9970530  21.0840390  11.5156950   6.4643090
  20.6389530  12.9895690  13.2405720  21.5656840  12.7539960  13.2841680
  20.6239960  13.8167690  12.7591750  27.2067090  12.2165550  13.0646760
  27.9992410  11.7214780  12.8572720  27.5000240  12.8955690  13.6722370
   4.5583260  78.1860450  77.8180260   4.4777310  77.2715060  77.5471970
   4.1447680  78.6827520  77.1119970   2.6901300  79.9639470  79.6989530
   1.9143400  79.4839910  79.9888100   3.3414230  79.2845120  79.5245690
   3.1615460  75.4467040  79.9328620   3.5380280  74.5738920  79.8202290
   3.0634970  75.7825740  79.0419060   6.9439580  72.9417480  76.8656960
   7.7649200  72.4514050  76.9082440   6.9773660  73.5315140  77.6188800
   7.1801060  74.8817860  79.6384500   6.4756630  75.1702750  80.2187610
   7.5413220  75.6917970  79.2784060  10.2487980  74.3272650  80.0293710
   9.3012890  74.3611630  80.1609140  10.5737970  75.1411600  80.4143070
   3.1688280  78.6918660  75.0609820   2.2417560  78.6256040  75.2898290
   3.3213100  79.6298790  74.9465060   3.1557360  74.9635660  72.0576980
   2.2161030  75.1249620  72.1429440   3.4740620  75.6821340  71.5112970
   9.6770120  79.6454180  82.0356010   8.8488750  79.7147270  81.5606140
  10.2720600  80.2308490  81.5671840   7.1985570  80.2538960  75.5645070
   6.5797990  79.9158510  74.9171370   7.1810020  79.6098720  76.2724260
   5.3750270  79.4925770  72.5717820   5.8143550  78.6548200  72.4255640
   6.0878690  80.1255170  72.6581960   8.9567410  70.7468580  70.8858860
   8.6440070  70.8395410  71.7857930   9.7179880  71.3249610  70.8356290
   4.9625190  76.5860390  75.0531770   4.3634080  77.3096190  74.8695390
   5.5104800  76.5237170  74.2708220   3.5690060  75.2223930  77.0835050
   3.9619630  75.5396130  76.2703740   3.9306910  74.3435810  77.1979570
   4.1545200  77.8129680  81.1785830   3.4226320  78.3216490  81.5275930
   3.7569540  76.9959660  80.8774610   4.6171110  73.2663360  80.5908770
   4.6343850  73.7172010  81.4350620   4.3686690  72.3669000  80.8042210
   3.4309640  72.1858610  74.1810570   2.6174250  71.6871780  74.1055880
   3.2371590  73.0256860  73.7646920   6.1458030  76.5578260  72.4772730
   7.0337650  76.8695490  72.3024070   6.1163120  75.6850510  72.0853310
   8.4172300  77.8690100  71.9452590   8.3336020  78.3004320  71.0949030
   9.1366490  78.3288450  72.3779410   8.1743040  73.3669530  74.0320410
   7.5456200  73.4715200  73.3178640   7.6794960  73.5866310  74.8214290
   4.1742500  72.3706140  76.8874080   4.0510280  72.3892270  75.9383590
   5.1227060  72.4185080  77.0072480   7.2671870  78.5253320  77.7360570
   6.3262010  78.5403550  77.9108260   7.5815940  77.7389280  78.1820870
   1.7900180  79.2275660  70.5184270   2.3105840  78.5124680  70.1525420
   2.4368580  79.8661530  70.8184780   5.6519750  71.0879510  72.7452210
   5.9322040  70.2447410  73.1011630   4.8785480  71.3202620  73.2590960
  10.0300470  80.3256240  73.3556120  10.7919380  80.8952890  73.4615810
  10.0454840  79.7583440  74.1264430   6.4795250  73.6435460  71.8082270
   6.8980130  73.4566440  70.9678930   6.1731310  72.7914510  72.1185200
   9.9784980  78.5559600  75.5058070   9.6028580  77.7887530  75.0739360
   9.2488100  78.9382300  75.9933000   9.2535940  76.7817090  78.8065310
   9.7773420  76.2879740  78.1755480   9.8395360  76.9167450  79.5512880
   8.7435910  76.0390440  74.7457720   9.2395030  75.8061310  75.5306600
   8.5451980  75.2002280  74.3295360  10.1723070  74.6751390  77.2795400
  10.0622350  74.5207430  78.2177670  10.9330660  74.1472330  77.0370810
  11.0613340  72.5059310  70.5201540  11.9862650  72.3740490  70.3119830
  11.0389130  72.5852130  71.4737990  11.1351830  73.2769970  73.1458250
  10.3403330  73.2115090  73.6751160  11.3395110  74.2120610  73.1343600
   3.0150690  70.9043750  81.5507990   2.2322480  71.3789250  81.8304750
   2.7213620  69.9998580  81.4421170   7.5671760  71.6066850  79.5957080
   8.0079850  71.5511950  78.7478680   7.2979350  72.5224860  79.6667260
   9.4310330  71.2382090  77.6065900   9.3698730  70.2943310  77.4596920
  10.2102360  71.3462180  78.1519360   5.4029890  69.9872950  78.3007090
   6.0059260  70.5593160  78.7755610   4.6622880  70.5512390  78.0780990
   8.5464490  70.3894510  73.5747370   8.7415120  71.2877960  73.8414800
   7.7594360  70.1581590  74.0680320   4.5583260  78.1860450  59.0436770
   4.4777310  77.2715060  58.7728480   4.1447680  78.6827520  58.3376480
   2.6901300  79.9639470  60.9246040   1.9143400  79.4839910  61.2144610
   3.3414230  79.2845120  60.7502200   3.1615460  75.4467040  61.1585130
   3.5380280  74.5738920  61.0458800   3.0634970  75.7825740  60.2675570
   6.9439580  72.9417480  58.0913470   7.7649200  72.4514050  58.1338950
   6.9773660  73.5315140  58.8445310  11.2339130  74.9584230  64.6557100
  10.5291300  75.3465940  64.1372210  11.4997050  75.6534520  65.2578030
   7.1801060  74.8817860  60.8641010   6.4756630  75.1702750  61.4444120
   7.5413220  75.6917970  60.5040570  10.2487980  74.3272650  61.2550220
   9.3012890  74.3611630  61.3865650  10.5737970  75.1411600  61.6399580
   3.1688280  78.6918660  56.2866330   2.2417560  78.6256040  56.5154800
   3.3213100  79.6298790  56.1721570   3.1557360  74.9635660  53.2833490
   2.2161030  75.1249620  53.3685950   3.4740620  75.6821340  52.7369480
   9.6770120  79.6454180  63.2612520   8.8488750  79.7147270  62.7862650
  10.2720600  80.2308490  62.7928350   7.1985570  80.2538960  56.7901580
   6.5797990  79.9158510  56.1427880   7.1810020  79.6098720  57.4980770
   6.6412130  76.4323500  64.2067390   6.2283310  77.2577210  64.4607380
   5.9088080  75.8468540  64.0143750   5.3750270  79.4925770  53.7974330
   5.8143550  78.6548200  53.6512150   6.0878690  80.1255170  53.8838470
   8.9567410  70.7468580  52.1115370   8.6440070  70.8395410  53.0114440
   9.7179880  71.3249610  52.0612800  10.1668700  75.4840080  68.0889510
   9.5512970  75.9919750  67.5604970   9.8465120  74.5838410  68.0315450
   2.2283020  74.3231970  65.5551700   1.7662390  74.5314990  66.3671640
   1.8261130  73.5091320  65.2522370   7.2287530  75.5440920  66.6848360
   6.3781120  75.2446670  67.0057430   7.0689320  75.7882930  65.7732180
   4.3237240  77.0442670  68.7847150   4.6490650  76.2106420  68.4449380
   5.1117570  77.5671190  68.9325480   4.9625190  76.5860390  56.2788280
   4.3634080  77.3096190  56.0951900   5.5104800  76.5237170  55.4964730
   3.5690060  75.2223930  58.3091560   3.9619630  75.5396130  57.4960250
   3.9306910  74.3435810  58.4236080   4.1545200  77.8129680  62.4042340
   3.4226320  78.3216490  62.7532440   3.7569540  76.9959660  62.1031120
   4.6171110  73.2663360  61.8165280   4.6343850  73.7172010  62.6607130
   4.3686690  72.3669000  62.0298720   8.0441860  70.6795540  67.6551660
   8.3687630  69.9485200  68.1809640   8.0798370  70.3609180  66.7532650
   3.4309640  72.1858610  55.4067080   2.6174250  71.6871780  55.3312390
   3.2371590  73.0256860  54.9903430   3.3518500  80.8629710  67.1506690
   3.2855810  79.9425380  66.8964280   2.7223640  80.9605150  67.8651330
   6.1458030  76.5578260  53.7029240   7.0337650  76.8695490  53.5280580
   6.1163120  75.6850510  53.3109820   8.4172300  77.8690100  53.1709100
   8.3336020  78.3004320  52.3205540   9.1366490  78.3288450  53.6035920
   9.4946440  80.3257620  66.2479070   8.7694630  80.9186400  66.0508460
  10.0221900  80.3181160  65.4492440   4.8081010  74.4112590  64.4489360
   5.1761830  73.5907800  64.7768930   3.9479210  74.4714480  64.8645010
   8.1743040  73.3669530  55.2576920   7.5456200  73.4715200  54.5435150
   7.6794960  73.5866310  56.0470800   1.7683000  77.0652180  64.6727330
   2.2668250  77.5398000  65.3379180   1.9105950  76.1415700  64.8797360
   4.1742500  72.3706140  58.1130590   4.0510280  72.3892270  57.1640100
   5.1227060  72.4185080  58.2328990   8.9749860  73.2820140  65.5155720
   8.4723460  74.0225540  65.8549530   9.7906520  73.6704140  65.1992510
   7.2671870  78.5253320  58.9617080   6.3262010  78.5403550  59.1364770
   7.5815940  77.7389280  59.4077380   1.7900180  79.2275660  51.7440780
   2.3105840  78.5124680  51.3781930   2.4368580  79.8661530  52.0441290
   6.3378020  80.6504060  67.0675850   6.7519040  80.8049140  67.9166270
   5.4029020  80.7759280  67.2301630   6.8100190  77.9900220  69.0715000
   7.3920960  77.2352540  68.9835480   6.9861960  78.5207660  68.2946480
   3.4357150  78.3340720  66.4209620   3.5553360  77.7381860  67.1604460
   4.2951150  78.3710410  66.0010920   5.7745050  78.8877910  64.9972130
   5.2480270  79.4120530  64.3937270   6.1176390  79.5205300  65.6281860
   5.0219350  74.4927880  67.9118460   4.3334870  73.8309420  67.8468450
   5.7425370  74.0466150  68.3566920   5.6519750  71.0879510  53.9708720
   5.9322040  70.2447410  54.3268140   4.8785480  71.3202620  54.4847470
  10.0300470  80.3256240  54.5812630  10.7919380  80.8952890  54.6872320
  10.0454840  79.7583440  55.3520940   6.4795250  73.6435460  53.0338780
   6.8980130  73.4566440  52.1935440   6.1731310  72.7914510  53.3441710
   9.9784980  78.5559600  56.7314580   9.6028580  77.7887530  56.2995870
   9.2488100  78.9382300  57.2189510   9.3684600  77.7031120  66.3654100
   9.1370690  77.4743870  65.4652050   9.6289150  78.6230670  66.3198990
   7.8072670  72.9287550  69.1433800   8.6842850  72.9370950  69.5267800
   7.8193510  72.1918390  68.5326150   9.2535940  76.7817090  60.0321820
   9.7773420  76.2879740  59.4011990   9.8395360  76.9167450  60.7769390
   9.4325660  76.8656960  63.5541370   8.4828370  76.8320500  63.6686360
   9.6138670  77.7757070  63.3191140   8.7435910  76.0390440  55.9714230
   9.2395030  75.8061310  56.7563110   8.5451980  75.2002280  55.5551870
  10.1723070  74.6751390  58.5051910  10.0622350  74.5207430  59.4434180
  10.9330660  74.1472330  58.2627320   8.5188790  70.6145520  64.9634910
   9.1561010  71.2279660  65.3294100   8.6663680  70.6506180  64.0184140
  11.0613340  72.5059310  51.7458050  11.9862650  72.3740490  51.5376340
  11.0389130  72.5852130  52.6994500  11.1351830  73.2769970  54.3714760
  10.3403330  73.2115090  54.9007670  11.3395110  74.2120610  54.3600110
   1.8893270  71.7671710  67.8710010   1.8282160  72.3593540  68.6205420
   2.8293650  71.6597670  67.7260270   4.5267830  71.4241770  67.5102300
   5.1408240  71.7421060  66.8483380   5.0717390  70.9390360  68.1298160
   5.2675870  69.9873910  63.8371590   4.3935710  70.3209020  63.6344520
   5.1586620  69.5147090  64.6623460   6.1747850  72.1944780  65.2213310
   5.8461210  71.3796540  64.8415040   7.1230150  72.1514590  65.0979000
   3.0150690  70.9043750  62.7764500   2.2322480  71.3789250  63.0561260
   2.7213620  69.9998580  62.6677680   7.5671760  71.6066850  60.8213590
   8.0079850  71.5511950  59.9735190   7.2979350  72.5224860  60.8923770
   9.4310330  71.2382090  58.8322410   9.3698730  70.2943310  58.6853430
  10.2102360  71.3462180  59.3775870   5.4029890  69.9872950  59.5263600
   6.0059260  70.5593160  60.0012120   4.6622880  70.5512390  59.3037500
   8.5464490  70.3894510  54.8003880   8.7415120  71.2877960  55.0671310
   7.7594360  70.1581590  55.2936830   5.6525110  70.1667980  69.9058540
   5.5390560  70.4862590  70.8010060   6.4694850  70.5680490  69.6095820
   4.5583260  78.1860450  40.2693280   4.4777310  77.2715060  39.9984990
   4.1447680  78.6827520  39.5632990   2.6901300  79.9639470  42.1502550
   1.9143400  79.4839910  42.4401120   3.3414230  79.2845120  41.9758710
   3.1615460  75.4467040  42.3841640   3.5380280  74.5738920  42.2715310
   3.0634970  75.7825740  41.4932080   6.9439580  72.9417480  39.3169980
   7.7649200  72.4514050  39.3595460   6.9773660  73.5315140  40.0701820
  11.2339130  74.9584230  45.8813610  10.5291300  75.3465940  45.3628720
  11.4997050  75.6534520  46.4834540   7.1801060  74.8817860  42.0897520
   6.4756630  75.1702750  42.6700630   7.5413220  75.6917970  41.7297080
  10.2487980  74.3272650  42.4806730   9.3012890  74.3611630  42.6122160
  10.5737970  75.1411600  42.8656090   3.1688280  78.6918660  37.5122840
   2.2417560  78.6256040  37.7411310   3.3213100  79.6298790  37.3978080
   3.1557360  74.9635660  34.5090000   2.2161030  75.1249620  34.5942460
   3.4740620  75.6821340  33.9625990   9.6770120  79.6454180  44.4869030
   8.8488750  79.7147270  44.0119160  10.2720600  80.2308490  44.0184860
   7.1985570  80.2538960  38.0158090   6.5797990  79.9158510  37.3684390
   7.1810020  79.6098720  38.7237280   6.6412130  76.4323500  45.4323900
   6.2283310  77.2577210  45.6863890   5.9088080  75.8468540  45.2400260
   5.3750270  79.4925770  35.0230840   5.8143550  78.6548200  34.8768660
   6.0878690  80.1255170  35.1094980   8.9567410  70.7468580  33.3371880
   8.6440070  70.8395410  34.2370950   9.7179880  71.3249610  33.2869310
  10.1668700  75.4840080  49.3146020   9.5512970  75.9919750  48.7861480
   9.8465120  74.5838410  49.2571960   2.2283020  74.3231970  46.7808210
   1.7662390  74.5314990  47.5928150   1.8261130  73.5091320  46.4778880
   7.2287530  75.5440920  47.9104870   6.3781120  75.2446670  48.2313940
   7.0689320  75.7882930  46.9988690   4.3237240  77.0442670  50.0103660
   4.6490650  76.2106420  49.6705890   5.1117570  77.5671190  50.1581990
   4.9625190  76.5860390  37.5044790   4.3634080  77.3096190  37.3208410
   5.5104800  76.5237170  36.7221240   3.5690060  75.2223930  39.5348070
   3.9619630  75.5396130  38.7216760   3.9306910  74.3435810  39.6492590
   4.1545200  77.8129680  43.6298850   3.4226320  78.3216490  43.9788950
   3.7569540  76.9959660  43.3287630   4.6171110  73.2663360  43.0421790
   4.6343850  73.7172010  43.8863640   4.3686690  72.3669000  43.2555230
   8.0441860  70.6795540  48.8808170   8.3687630  69.9485200  49.4066150
   8.0798370  70.3609180  47.9789160   3.4309640  72.1858610  36.6323590
   2.6174250  71.6871780  36.5568900   3.2371590  73.0256860  36.2159940
   3.3518500  80.8629710  48.3763200   3.2855810  79.9425380  48.1220790
   2.7223640  80.9605150  49.0907840   6.1458030  76.5578260  34.9285750
   7.0337650  76.8695490  34.7537090   6.1163120  75.6850510  34.5366330
   8.4172300  77.8690100  34.3965610   8.3336020  78.3004320  33.5462050
   9.1366490  78.3288450  34.8292430   9.4946440  80.3257620  47.4735580
   8.7694630  80.9186400  47.2764970  10.0221900  80.3181160  46.6748950
   4.8081010  74.4112590  45.6745870   5.1761830  73.5907800  46.0025440
   3.9479210  74.4714480  46.0901520   8.1743040  73.3669530  36.4833430
   7.5456200  73.4715200  35.7691660   7.6794960  73.5866310  37.2727310
   1.7683000  77.0652180  45.8983840   2.2668250  77.5398000  46.5635690
   1.9105950  76.1415700  46.1053870   4.1742500  72.3706140  39.3387100
   4.0510280  72.3892270  38.3896610   5.1227060  72.4185080  39.4585500
   8.9749860  73.2820140  46.7412230   8.4723460  74.0225540  47.0806040
   9.7906520  73.6704140  46.4249020   7.2671870  78.5253320  40.1873590
   6.3262010  78.5403550  40.3621280   7.5815940  77.7389280  40.6333890
   1.7900180  79.2275660  32.9697290   2.3105840  78.5124680  32.6038440
   2.4368580  79.8661530  33.2697800   6.3378020  80.6504060  48.2932360
   6.7519040  80.8049140  49.1422780   5.4029020  80.7759280  48.4558140
   6.8100190  77.9900220  50.2971510   7.3920960  77.2352540  50.2091990
   6.9861960  78.5207660  49.5202990   3.4357150  78.3340720  47.6466130
   3.5553360  77.7381860  48.3860970   4.2951150  78.3710410  47.2267430
   5.7745050  78.8877910  46.2228640   5.2480270  79.4120530  45.6193780
   6.1176390  79.5205300  46.8538370   5.0219350  74.4927880  49.1374970
   4.3334870  73.8309420  49.0724960   5.7425370  74.0466150  49.5823430
   5.6519750  71.0879510  35.1965230   5.9322040  70.2447410  35.5524650
   4.8785480  71.3202620  35.7103980  10.0300470  80.3256240  35.8069140
  10.7919380  80.8952890  35.9128830  10.0454840  79.7583440  36.5777450
   6.4795250  73.6435460  34.2595290   6.8980130  73.4566440  33.4191950
   6.1731310  72.7914510  34.5698220   9.9784980  78.5559600  37.9571090
   9.6028580  77.7887530  37.5252380   9.2488100  78.9382300  38.4446020
   9.3684600  77.7031120  47.5910610   9.1370690  77.4743870  46.6908560
   9.6289150  78.6230670  47.5455500   7.8072670  72.9287550  50.3690310
   8.6842850  72.9370950  50.7524310   7.8193510  72.1918390  49.7582660
   9.2535940  76.7817090  41.2578330   9.7773420  76.2879740  40.6268500
   9.8395360  76.9167450  42.0025900   9.4325660  76.8656960  44.7797880
   8.4828370  76.8320500  44.8942870   9.6138670  77.7757070  44.5447650
   8.7435910  76.0390440  37.1970740   9.2395030  75.8061310  37.9819620
   8.5451980  75.2002280  36.7808380  10.1723070  74.6751390  39.7308420
  10.0622350  74.5207430  40.6690690  10.9330660  74.1472330  39.4883830
   8.5188790  70.6145520  46.1891420   9.1561010  71.2279660  46.5550610
   8.6663680  70.6506180  45.2440650  11.0613340  72.5059310  32.9714560
  11.9862650  72.3740490  32.7632850  11.0389130  72.5852130  33.9251010
  11.1351830  73.2769970  35.5971270  10.3403330  73.2115090  36.1264180
  11.3395110  74.2120610  35.5856620   1.8893270  71.7671710  49.0966520
   1.8282160  72.3593540  49.8461930   2.8293650  71.6597670  48.9516780
   4.5267830  71.4241770  48.7358810   5.1408240  71.7421060  48.0739890
   5.0717390  70.9390360  49.3554670   5.2675870  69.9873910  45.0628100
   4.3935710  70.3209020  44.8601030   5.1586620  69.5147090  45.8879970
   6.1747850  72.1944780  46.4469820   5.8461210  71.3796540  46.0671550
   7.1230150  72.1514590  46.3235510   3.0150690  70.9043750  44.0021010
   2.2322480  71.3789250  44.2817770   2.7213620  69.9998580  43.8934190
   7.5671760  71.6066850  42.0470100   8.0079850  71.5511950  41.1991700
   7.2979350  72.5224860  42.1180280   9.4310330  71.2382090  40.0578920
   9.3698730  70.2943310  39.9109940  10.2102360  71.3462180  40.6032380
   5.4029890  69.9872950  40.7520110   6.0059260  70.5593160  41.2268630
   4.6622880  70.5512390  40.5294010   8.5464490  70.3894510  36.0260390
   8.7415120  71.2877960  36.2927820   7.7594360  70.1581590  36.5193340
   5.6525110  70.1667980  51.1315050   5.5390560  70.4862590  52.0266570
   6.4694850  70.5680490  50.8352330   4.5583260  78.1860450  21.4949790
   4.4777310  77.2715060  21.2241500   4.1447680  78.6827520  20.7889500
   2.6901300  79.9639470  23.3759060   1.9143400  79.4839910  23.6657630
   3.3414230  79.2845120  23.2015220   3.1615460  75.4467040  23.6098150
   3.5380280  74.5738920  23.4971820   3.0634970  75.7825740  22.7188590
   6.9439580  72.9417480  20.5426490   7.7649200  72.4514050  20.5851970
   6.9773660  73.5315140  21.2958330  11.2339130  74.9584230  27.1070120
  10.5291300  75.3465940  26.5885230  11.4997050  75.6534520  27.7091050
   7.1801060  74.8817860  23.3154030   6.4756630  75.1702750  23.8957140
   7.5413220  75.6917970  22.9553590  10.2487980  74.3272650  23.7063240
   9.3012890  74.3611630  23.8378670  10.5737970  75.1411600  24.0912600
   3.1688280  78.6918660  18.7379350   2.2417560  78.6256040  18.9667820
   3.3213100  79.6298790  18.6234590   3.1557360  74.9635660  15.7346510
   2.2161030  75.1249620  15.8198970   3.4740620  75.6821340  15.1882500
   9.6770120  79.6454180  25.7125540   8.8488750  79.7147270  25.2375670
  10.2720600  80.2308490  25.2441370   7.1985570  80.2538960  19.2414600
   6.5797990  79.9158510  18.5940900   7.1810020  79.6098720  19.9493790
   6.6412130  76.4323500  26.6580410   6.2283310  77.2577210  26.9120400
   5.9088080  75.8468540  26.4656770   5.3750270  79.4925770  16.2487350
   5.8143550  78.6548200  16.1025170   6.0878690  80.1255170  16.3351490
   8.9567410  70.7468580  14.5628390   8.6440070  70.8395410  15.4627460
   9.7179880  71.3249610  14.5125820  10.1668700  75.4840080  30.5402530
   9.5512970  75.9919750  30.0117990   9.8465120  74.5838410  30.4828470
   2.2283020  74.3231970  28.0064720   1.7662390  74.5314990  28.8184660
   1.8261130  73.5091320  27.7035390   7.2287530  75.5440920  29.1361380
   6.3781120  75.2446670  29.4570450   7.0689320  75.7882930  28.2245200
   4.3237240  77.0442670  31.2360170   4.6490650  76.2106420  30.8962400
   5.1117570  77.5671190  31.3838500   4.9625190  76.5860390  18.7301300
   4.3634080  77.3096190  18.5464920   5.5104800  76.5237170  17.9477750
   3.5690060  75.2223930  20.7604580   3.9619630  75.5396130  19.9473270
   3.9306910  74.3435810  20.8749100   4.1545200  77.8129680  24.8555360
   3.4226320  78.3216490  25.2045460   3.7569540  76.9959660  24.5544140
   4.6171110  73.2663360  24.2678300   4.6343850  73.7172010  25.1120150
   4.3686690  72.3669000  24.4811740   8.0441860  70.6795540  30.1064680
   8.3687630  69.9485200  30.6322660   8.0798370  70.3609180  29.2045670
   3.4309640  72.1858610  17.8580100   2.6174250  71.6871780  17.7825410
   3.2371590  73.0256860  17.4416450   3.3518500  80.8629710  29.6019710
   3.2855810  79.9425380  29.3477300   2.7223640  80.9605150  30.3164350
   6.1458030  76.5578260  16.1542260   7.0337650  76.8695490  15.9793600
   6.1163120  75.6850510  15.7622840   8.4172300  77.8690100  15.6222120
   8.3336020  78.3004320  14.7718560   9.1366490  78.3288450  16.0548940
   9.4946440  80.3257620  28.6992090   8.7694630  80.9186400  28.5021480
  10.0221900  80.3181160  27.9005460   4.8081010  74.4112590  26.9002380
   5.1761830  73.5907800  27.2281950   3.9479210  74.4714480  27.3158030
   8.1743040  73.3669530  17.7089940   7.5456200  73.4715200  16.9948170
   7.6794960  73.5866310  18.4983820   1.7683000  77.0652180  27.1240350
   2.2668250  77.5398000  27.7892200   1.9105950  76.1415700  27.3310380
   4.1742500  72.3706140  20.5643610   4.0510280  72.3892270  19.6153120
   5.1227060  72.4185080  20.6842010   8.9749860  73.2820140  27.9668740
   8.4723460  74.0225540  28.3062550   9.7906520  73.6704140  27.6505530
   7.2671870  78.5253320  21.4130100   6.3262010  78.5403550  21.5877790
   7.5815940  77.7389280  21.8590400   1.7900180  79.2275660  14.1953800
   2.3105840  78.5124680  13.8294950   2.4368580  79.8661530  14.4954310
   6.3378020  80.6504060  29.5188870   6.7519040  80.8049140  30.3679290
   5.4029020  80.7759280  29.6814650   6.8100190  77.9900220  31.5228020
   7.3920960  77.2352540  31.4348500   6.9861960  78.5207660  30.7459500
   3.4357150  78.3340720  28.8722640   3.5553360  77.7381860  29.6117480
   4.2951150  78.3710410  28.4523940   5.7745050  78.8877910  27.4485150
   5.2480270  79.4120530  26.8450290   6.1176390  79.5205300  28.0794880
   5.0219350  74.4927880  30.3631480   4.3334870  73.8309420  30.2981470
   5.7425370  74.0466150  30.8079940   5.6519750  71.0879510  16.4221740
   5.9322040  70.2447410  16.7781160   4.8785480  71.3202620  16.9360490
  10.0300470  80.3256240  17.0325650  10.7919380  80.8952890  17.1385340
  10.0454840  79.7583440  17.8033960   6.4795250  73.6435460  15.4851800
   6.8980130  73.4566440  14.6448460   6.1731310  72.7914510  15.7954730
   9.9784980  78.5559600  19.1827600   9.6028580  77.7887530  18.7508890
   9.2488100  78.9382300  19.6702530   9.3684600  77.7031120  28.8167120
   9.1370690  77.4743870  27.9165070   9.6289150  78.6230670  28.7712010
   7.8072670  72.9287550  31.5946820   8.6842850  72.9370950  31.9780820
   7.8193510  72.1918390  30.9839170   9.2535940  76.7817090  22.4834840
   9.7773420  76.2879740  21.8525010   9.8395360  76.9167450  23.2282410
   9.4325660  76.8656960  26.0054390   8.4828370  76.8320500  26.1199380
   9.6138670  77.7757070  25.7704160   8.7435910  76.0390440  18.4227250
   9.2395030  75.8061310  19.2076130   8.5451980  75.2002280  18.0064890
  10.1723070  74.6751390  20.9564930  10.0622350  74.5207430  21.8947200
  10.9330660  74.1472330  20.7140340   8.5188790  70.6145520  27.4147930
   9.1561010  71.2279660  27.7807120   8.6663680  70.6506180  26.4697160
  11.0613340  72.5059310  14.1971070  11.9862650  72.3740490  13.9889360
  11.0389130  72.5852130  15.1507520  11.1351830  73.2769970  16.8227780
  10.3403330  73.2115090  17.3520690  11.3395110  74.2120610  16.8113130
   1.8893270  71.7671710  30.3223030   1.8282160  72.3593540  31.0718440
   2.8293650  71.6597670  30.1773290   4.5267830  71.4241770  29.9615320
   5.1408240  71.7421060  29.2996400   5.0717390  70.9390360  30.5811180
   5.2675870  69.9873910  26.2884610   4.3935710  70.3209020  26.0857540
   5.1586620  69.5147090  27.1136480   6.1747850  72.1944780  27.6726330
   5.8461210  71.3796540  27.2928060   7.1230150  72.1514590  27.5492020
   3.0150690  70.9043750  25.2277520   2.2322480  71.3789250  25.5074280
   2.7213620  69.9998580  25.1190700   7.5671760  71.6066850  23.2726610
   8.0079850  71.5511950  22.4248210   7.2979350  72.5224860  23.3436790
   9.4310330  71.2382090  21.2835430   9.3698730  70.2943310  21.1366450
  10.2102360  71.3462180  21.8288890   5.4029890  69.9872950  21.9776620
   6.0059260  70.5593160  22.4525140   4.6622880  70.5512390  21.7550520
   8.5464490  70.3894510  17.2516900   8.7415120  71.2877960  17.5184330
   7.7594360  70.1581590  17.7449850   5.6525110  70.1667980  32.3571560
   5.5390560  70.4862590  33.2523080   6.4694850  70.5680490  32.0608840
   4.5583260  78.1860450   2.7206300   4.4777310  77.2715060   2.4498010
   4.1447680  78.6827520   2.0146010   2.6901300  79.9639470   4.6015570
   1.9143400  79.4839910   4.8914140   3.3414230  79.2845120   4.4271730
   3.1615460  75.4467040   4.8354660   3.5380280  74.5738920   4.7228330
   3.0634970  75.7825740   3.9445100   6.9439580  72.9417480   1.7683000
   7.7649200  72.4514050   1.8108480   6.9773660  73.5315140   2.5214840
  11.2339130  74.9584230   8.3326630  10.5291300  75.3465940   7.8141740
  11.4997050  75.6534520   8.9347560   7.1801060  74.8817860   4.5410540
   6.4756630  75.1702750   5.1213650   7.5413220  75.6917970   4.1810100
  10.2487980  74.3272650   4.9319750   9.3012890  74.3611630   5.0635180
  10.5737970  75.1411600   5.3169110   9.6770120  79.6454180   6.9382050
   8.8488750  79.7147270   6.4632180  10.2720600  80.2308490   6.4697880
   6.6412130  76.4323500   7.8836920   6.2283310  77.2577210   8.1376910
   5.9088080  75.8468540   7.6913280  10.1668700  75.4840080  11.7659040
   9.5512970  75.9919750  11.2374500   9.8465120  74.5838410  11.7084980
   2.2283020  74.3231970   9.2321230   1.7662390  74.5314990  10.0441170
   1.8261130  73.5091320   8.9291900   7.2287530  75.5440920  10.3617890
   6.3781120  75.2446670  10.6826960   7.0689320  75.7882930   9.4501710
   4.3237240  77.0442670  12.4616680   4.6490650  76.2106420  12.1218910
   5.1117570  77.5671190  12.6095010   4.1545200  77.8129680   6.0811870
   3.4226320  78.3216490   6.4301970   3.7569540  76.9959660   5.7800650
   4.6171110  73.2663360   5.4934810   4.6343850  73.7172010   6.3376660
   4.3686690  72.3669000   5.7068250   8.0441860  70.6795540  11.3321190
   8.3687630  69.9485200  11.8579170   8.0798370  70.3609180  10.4302180
   3.3518500  80.8629710  10.8276220   3.2855810  79.9425380  10.5733810
   2.7223640  80.9605150  11.5420860   9.4946440  80.3257620   9.9248600
   8.7694630  80.9186400   9.7277990  10.0221900  80.3181160   9.1261970
   4.8081010  74.4112590   8.1258890   5.1761830  73.5907800   8.4538460
   3.9479210  74.4714480   8.5414540   1.7683000  77.0652180   8.3496860
   2.2668250  77.5398000   9.0148710   1.9105950  76.1415700   8.5566890
   8.9749860  73.2820140   9.1925250   8.4723460  74.0225540   9.5319060
   9.7906520  73.6704140   8.8762040   7.2671870  78.5253320   2.6386610
   6.3262010  78.5403550   2.8134300   7.5815940  77.7389280   3.0846910
   6.3378020  80.6504060  10.7445380   6.7519040  80.8049140  11.5935800
   5.4029020  80.7759280  10.9071160   6.8100190  77.9900220  12.7484530
   7.3920960  77.2352540  12.6605010   6.9861960  78.5207660  11.9716010
   3.4357150  78.3340720  10.0979150   3.5553360  77.7381860  10.8373990
   4.2951150  78.3710410   9.6780450   5.7745050  78.8877910   8.6741660
   5.2480270  79.4120530   8.0706800   6.1176390  79.5205300   9.3051390
   5.0219350  74.4927880  11.5887990   4.3334870  73.8309420  11.5237980
   5.7425370  74.0466150  12.0336450   9.3684600  77.7031120  10.0423630
   9.1370690  77.4743870   9.1421580   9.6289150  78.6230670   9.9968520
   7.8072670  72.9287550  12.8203330   8.6842850  72.9370950  13.2037330
   7.8193510  72.1918390  12.2095680   9.2535940  76.7817090   3.7091350
   9.7773420  76.2879740   3.0781520   9.8395360  76.9167450   4.4538920
   9.4325660  76.8656960   7.2310900   8.4828370  76.8320500   7.3455890
   9.6138670  77.7757070   6.9960670  10.1723070  74.6751390   2.1821440
  10.0622350  74.5207430   3.1203710  10.9330660  74.1472330   1.9396850
   8.5188790  70.6145520   8.6404440   9.1561010  71.2279660   9.0063630
   8.6663680  70.6506180   7.6953670   1.8893270  71.7671710  11.5479540
   1.8282160  72.3593540  12.2974950   2.8293650  71.6597670  11.4029800
   4.5267830  71.4241770  11.1871830   5.1408240  71.7421060  10.5252910
   5.0717390  70.9390360  11.8067690   5.2675870  69.9873910   7.5141120
   4.3935710  70.3209020   7.3114050   5.1586620  69.5147090   8.3392990
   6.1747850  72.1944780   8.8982840   5.8461210  71.3796540   8.5184570
   7.1230150  72.1514590   8.7748530   3.0150690  70.9043750   6.4534030
   2.2322480  71.3789250   6.7330790   2.7213620  69.9998580   6.3447210
   7.5671760  71.6066850   4.4983120   8.0079850  71.5511950   3.6504720
   7.2979350  72.5224860   4.5693300   9.4310330  71.2382090   2.5091940
   9.3698730  70.2943310   2.3622960  10.2102360  71.3462180   3.0545400
   5.4029890  69.9872950   3.2033130   6.0059260  70.5593160   3.6781650
   4.6622880  70.5512390   2.9807030   5.6525110  70.1667980  13.5828070
   5.5390560  70.4862590  14.4779590   6.4694850  70.5680490  13.2865350
   4.5583260  59.4116960  77.8180260   4.4777310  58.4971570  77.5471970
   4.1447680  59.9084030  77.1119970   2.6901300  61.1895980  79.6989530
   1.9143400  60.7096420  79.9888100   3.3414230  60.5101630  79.5245690
   6.7108730  65.5956170  78.4788660   6.2490260  64.8243410  78.8075830
   7.5234280  65.6222240  78.9841110   2.9372040  67.8814180  78.0992650
   2.3183480  68.3371680  77.5287090   3.7923820  68.0365640  77.6982350
   2.1310290  63.8653170  79.7059690   2.0618570  62.9243110  79.5448820
   2.8930150  63.9554580  80.2782260   3.1615460  56.6723550  79.9328620
   3.5380280  55.7995430  79.8202290   3.0634970  57.0082250  79.0419060
   6.9439580  54.1673990  76.8656960   7.7649200  53.6770560  76.9082440
   6.9773660  54.7571650  77.6188800   3.8035390  62.7653420  75.4924560
   3.1852660  63.2302870  74.9287280   4.3158640  63.4580900  75.9094070
   7.1801060  56.1074370  79.6384500   6.4756630  56.3959260  80.2187610
   7.5413220  56.9174480  79.2784060   8.7963840  65.7249500  81.9011980
   8.1127360  66.3948610  81.8928650   9.3358130  65.9230150  81.1356840
  10.2487980  55.5529160  80.0293710   9.3012890  55.5868140  80.1609140
  10.5737970  56.3668110  80.4143070   6.3322580  67.5693630  80.6157160
   6.3449740  67.1655920  79.7479420   5.7797800  68.3440920  80.5118590
   7.6268000  64.2909850  75.7047330   7.5164330  63.3484180  75.8296750
   7.6236250  64.6525490  76.5910090   3.1688280  59.9175170  75.0609820
   2.2417560  59.8512550  75.2898290   3.3213100  60.8555300  74.9465060
   3.1557360  56.1892170  72.0576980   2.2161030  56.3506130  72.1429440
   3.4740620  56.9077850  71.5112970   9.6770120  60.8710690  82.0356010
   8.8488750  60.9403780  81.5606140  10.2720600  61.4565000  81.5671840
   7.1985570  61.4795470  75.5645070   6.5797990  61.1415020  74.9171370
   7.1810020  60.8355230  76.2724260   5.3750270  60.7182280  72.5717820
   5.8143550  59.8804710  72.4255640   6.0878690  61.3511680  72.6581960
   3.4845650  65.6578350  76.5399060   3.9241560  66.4002680  76.1254450
   3.4232540  65.9004920  77.4638020   8.9567410  51.9725090  70.8858860
   8.6440070  52.0651920  71.7857930   9.7179880  52.5506120  70.8356290
   6.1515830  68.6447470  73.8962070   5.9916970  68.3550410  74.7943900
   5.9862540  67.8687600  73.3607300   5.8541960  66.1535030  72.4560070
   5.1607120  66.1512320  71.7962350   6.5964820  65.7294350  72.0254240
   5.4191890  67.7797740  76.5308560   5.8748840  66.9987120  76.8447180
   5.7584410  68.4904560  77.0749740   4.9625190  57.8116900  75.0531770
   4.3634080  58.5352700  74.8695390   5.5104800  57.7493680  74.2708220
   3.5690060  56.4480440  77.0835050   3.9619630  56.7652640  76.2703740
   3.9306910  55.5692320  77.1979570   4.1545200  59.0386190  81.1785830
   3.4226320  59.5473000  81.5275930   3.7569540  58.2216170  80.8774610
   4.6171110  54.4919870  80.5908770   4.6343850  54.9428520  81.4350620
   4.3686690  53.5925510  80.8042210   7.9699700  62.0177160  80.0381180
   8.6898820  62.5132450  79.6477290   7.7681520  61.3395050  79.3935050
   3.4309640  53.4115120  74.1810570   2.6174250  52.9128290  74.1055880
   3.2371590  54.2513370  73.7646920   6.1458030  57.7834770  72.4772730
   7.0337650  58.0952000  72.3024070   6.1163120  56.9107020  72.0853310
   8.4172300  59.0946610  71.9452590   8.3336020  59.5260830  71.0949030
   9.1366490  59.5544960  72.3779410   9.4459550  65.9488870  74.6734720
   8.8035710  65.2944490  74.9478440   9.0590210  66.3543960  73.8975390
   5.0246030  63.2774300  78.5206410   5.3769850  62.6802430  77.8607780
   4.1408360  62.9518530  78.6914660   3.9901210  64.5556710  81.4871930
   4.6323440  63.8549870  81.6004100   4.5150560  65.3355150  81.3068820
   7.8356930  64.8405330  71.2111070   7.6094510  64.1235770  71.8035710
   7.4453130  64.5917770  70.3732820   7.4173180  62.7577270  72.8725230
   7.1294880  63.2189960  73.6603110   8.2125350  62.2975040  73.1409450
   8.1743040  54.5926040  74.0320410   7.5456200  54.6971710  73.3178640
   7.6794960  54.8122820  74.8214290   2.6201180  66.3131630  71.4654390
   2.7213160  66.1095620  70.5356370   1.7202920  66.0589910  71.6702170
   4.1742500  53.5962650  76.8874080   4.0510280  53.6148780  75.9383590
   5.1227060  53.6441590  77.0072480   7.2671870  59.7509830  77.7360570
   6.3262010  59.7660060  77.9108260   7.5815940  58.9645790  78.1820870
   9.2697450  66.9218680  79.4114830   9.3944870  67.7449850  79.8838640
  10.1363010  66.7109410  79.0638980   8.9047460  67.4150330  72.3294270
   8.6188970  67.0015470  71.5148450   8.7067010  68.3438040  72.2094790
   3.6097420  62.4703640  71.3741870   3.0607520  62.9172940  72.0184610
   4.2316680  61.9652890  71.8979540   1.7900180  60.4532170  70.5184270
   2.3105840  59.7381190  70.1525420   2.4368580  61.0918040  70.8184780
   5.6519750  52.3136020  72.7452210   5.9322040  51.4703920  73.1011630
   4.8785480  52.5459130  73.2590960   2.3548210  68.5343780  72.8086010
   3.2499000  68.8728750  72.8304770   2.3865840  67.8123190  72.1810290
  10.5744010  64.8065270  70.8521920   9.7436970  64.8741920  71.3229150
  10.7515840  65.6969390  70.5488780  10.0300470  61.5512750  73.3556120
  10.7919380  62.1209400  73.4615810  10.0454840  60.9839950  74.1264430
  11.0360440  62.4062850  78.1998050  11.4069270  61.6230170  77.7934020
  11.6762370  63.0951950  78.0215350  10.0819640  61.8447120  70.5128640
  10.3568480  62.7526000  70.3847860   9.8930380  61.7809650  71.4490630
   6.4795250  54.8691970  71.8082270   6.8980130  54.6822950  70.9678930
   6.1731310  54.0171020  72.1185200   9.9784980  59.7816110  75.5058070
   9.6028580  59.0144040  75.0739360   9.2488100  60.1638810  75.9933000
   9.2535940  58.0073600  78.8065310   9.7773420  57.5136250  78.1755480
   9.8395360  58.1423960  79.5512880   8.7435910  57.2646950  74.7457720
   9.2395030  57.0317820  75.5306600   8.5451980  56.4258790  74.3295360
  10.1723070  55.9007900  77.2795400  10.0622350  55.7463940  78.2177670
  10.9330660  55.3728840  77.0370810  11.0613340  53.7315820  70.5201540
  11.9862650  53.5997000  70.3119830  11.0389130  53.8108640  71.4737990
  11.1351830  54.5026480  73.1458250  10.3403330  54.4371600  73.6751160
  11.3395110  55.4377120  73.1343600   8.0770250  68.5418030  77.1396640
   8.6729320  68.2202600  76.4631060   8.3348400  68.0689850  77.9309910
   8.6282460  69.1913330  80.9694370   8.1685430  69.9429140  80.5952390
   7.9994920  68.4719800  80.9109170   1.7973680  68.3910060  80.9711480
   2.0851490  68.1364360  80.0944490   2.3096900  67.8387420  81.5617050
   3.0150690  52.1300260  81.5507990   2.2322480  52.6045760  81.8304750
   2.7213620  51.2255090  81.4421170   7.5671760  52.8323360  79.5957080
   8.0079850  52.7768460  78.7478680   7.2979350  53.7481370  79.6667260
   9.4310330  52.4638600  77.6065900   9.3698730  51.5199820  77.4596920
  10.2102360  52.5718690  78.1519360   5.4029890  51.2129460  78.3007090
   6.0059260  51.7849670  78.7755610   4.6622880  51.7768900  78.0780990
   8.5464490  51.6151020  73.5747370   8.7415120  52.5134470  73.8414800
   7.7594360  51.3838100  74.0680320  10.0991100  68.8551730  75.3353930
  10.2743290  68.1689470  74.6914850   9.4012670  69.3798780  74.9430600
   4.5583260  59.4116960  59.0436770   4.4777310  58.4971570  58.7728480
   4.1447680  59.9084030  58.3376480   2.6901300  61.1895980  60.9246040
   1.9143400  60.7096420  61.2144610   3.3414230  60.5101630  60.7502200
   6.7108730  65.5956170  59.7045170   6.2490260  64.8243410  60.0332340
   7.5234280  65.6222240  60.2097620   2.9372040  67.8814180  59.3249160
   2.3183480  68.3371680  58.7543600   3.7923820  68.0365640  58.9238860
   2.1310290  63.8653170  60.9316200   2.0618570  62.9243110  60.7705330
   2.8930150  63.9554580  61.5038770   3.1615460  56.6723550  61.1585130
   3.5380280  55.7995430  61.0458800   3.0634970  57.0082250  60.2675570
   6.9439580  54.1673990  58.0913470   7.7649200  53.6770560  58.1338950
   6.9773660  54.7571650  58.8445310  11.2339130  56.1840740  64.6557100
  10.5291300  56.5722450  64.1372210  11.4997050  56.8791030  65.2578030
   3.8035390  62.7653420  56.7181070   3.1852660  63.2302870  56.1543790
   4.3158640  63.4580900  57.1350580   7.1801060  56.1074370  60.8641010
   6.4756630  56.3959260  61.4444120   7.5413220  56.9174480  60.5040570
   8.7963840  65.7249500  63.1268490   8.1127360  66.3948610  63.1185160
   9.3358130  65.9230150  62.3613350  10.2487980  55.5529160  61.2550220
   9.3012890  55.5868140  61.3865650  10.5737970  56.3668110  61.6399580
   6.3322580  67.5693630  61.8413670   6.3449740  67.1655920  60.9735930
   5.7797800  68.3440920  61.7375100   7.6268000  64.2909850  56.9303840
   7.5164330  63.3484180  57.0553260   7.6236250  64.6525490  57.8166600
   5.7308020  62.4723470  63.1696280   6.1476810  62.2583580  62.3349740
   6.4547840  62.7296260  63.7404900   3.1688280  59.9175170  56.2866330
   2.2417560  59.8512550  56.5154800   3.3213100  60.8555300  56.1721570
   3.1557360  56.1892170  53.2833490   2.2161030  56.3506130  53.3685950
   3.4740620  56.9077850  52.7369480   9.6770120  60.8710690  63.2612520
   8.8488750  60.9403780  62.7862650  10.2720600  61.4565000  62.7928350
   7.1985570  61.4795470  56.7901580   6.5797990  61.1415020  56.1427880
   7.1810020  60.8355230  57.4980770   6.6412130  57.6580010  64.2067390
   6.2283310  58.4833720  64.4607380   5.9088080  57.0725050  64.0143750
   7.3312230  67.7039340  64.8948370   6.8542790  68.5111530  64.7020980
   6.6474020  67.0517670  65.0474580   5.3750270  60.7182280  53.7974330
   5.8143550  59.8804710  53.6512150   6.0878690  61.3511680  53.8838470
   3.4845650  65.6578350  57.7655570   3.9241560  66.4002680  57.3510960
   3.4232540  65.9004920  58.6894530   8.9567410  51.9725090  52.1115370
   8.6440070  52.0651920  53.0114440   9.7179880  52.5506120  52.0612800
  10.9111440  67.4651280  69.9639760  11.3871160  67.9434170  70.6428840
  11.5318600  67.3968770  69.2385260  10.3144690  64.6564130  67.1239770
  10.4407750  64.4176010  66.2056950  10.3566070  63.8248670  67.5961850
   4.1761430  68.3592130  65.6934580   4.6906100  68.2700140  66.4957010
   3.3330510  68.7051830  65.9862490   6.1515830  68.6447470  55.1218580
   5.9916970  68.3550410  56.0200410   5.9862540  67.8687600  54.5863810
   5.8541960  66.1535030  53.6816580   5.1607120  66.1512320  53.0218860
   6.5964820  65.7294350  53.2510750   5.4191890  67.7797740  57.7565070
   5.8748840  66.9987120  58.0703690   5.7584410  68.4904560  58.3006250
  10.1668700  56.7096590  68.0889510   9.5512970  57.2176260  67.5604970
   9.8465120  55.8094920  68.0315450   2.2283020  55.5488480  65.5551700
   1.7662390  55.7571500  66.3671640   1.8261130  54.7347830  65.2522370
   7.2287530  56.7697430  66.6848360   6.3781120  56.4703180  67.0057430
   7.0689320  57.0139440  65.7732180   4.3237240  58.2699180  68.7847150
   4.6490650  57.4362930  68.4449380   5.1117570  58.7927700  68.9325480
   4.9625190  57.8116900  56.2788280   4.3634080  58.5352700  56.0951900
   5.5104800  57.7493680  55.4964730   3.5690060  56.4480440  58.3091560
   3.9619630  56.7652640  57.4960250   3.9306910  55.5692320  58.4236080
   4.1545200  59.0386190  62.4042340   3.4226320  59.5473000  62.7532440
   3.7569540  58.2216170  62.1031120   4.6171110  54.4919870  61.8165280
   4.6343850  54.9428520  62.6607130   4.3686690  53.5925510  62.0298720
   8.0441860  51.9052050  67.6551660   8.3687630  51.1741710  68.1809640
   8.0798370  51.5865690  66.7532650   7.9699700  62.0177160  61.2637690
   8.6898820  62.5132450  60.8733800   7.7681520  61.3395050  60.6191560
   3.4309640  53.4115120  55.4067080   2.6174250  52.9128290  55.3312390
   3.2371590  54.2513370  54.9903430   3.3518500  62.0886220  67.1506690
   3.2855810  61.1681890  66.8964280   2.7223640  62.1861660  67.8651330
   6.1458030  57.7834770  53.7029240   7.0337650  58.0952000  53.5280580
   6.1163120  56.9107020  53.3109820   3.2835230  64.9106790  66.9010490
   3.2979770  63.9787750  66.6829400   2.5760330  64.9966550  67.5400260
   8.4172300  59.0946610  53.1709100   8.3336020  59.5260830  52.3205540
   9.1366490  59.5544960  53.6035920   9.4946440  61.5514130  66.2479070
   8.7694630  62.1442910  66.0508460  10.0221900  61.5437670  65.4492440
   9.4459550  65.9488870  55.8991230   8.8035710  65.2944490  56.1734950
   9.0590210  66.3543960  55.1231900   5.0246030  63.2774300  59.7462920
   5.3769850  62.6802430  59.0864290   4.1408360  62.9518530  59.9171170
   2.7169130  66.5524360  63.9950990   3.3611350  66.7583740  64.6724410
   3.0798570  65.7912760  63.5421840   3.9901210  64.5556710  62.7128440
   4.6323440  63.8549870  62.8260610   4.5150560  65.3355150  62.5325330
   7.8356930  64.8405330  52.4367580   7.6094510  64.1235770  53.0292220
   7.4453130  64.5917770  51.5989330   5.7638830  65.3551610  65.9164500
   6.0995070  65.9418300  66.5942420   4.8439170  65.2244320  66.1462290
   7.4173180  62.7577270  54.0981740   7.1294880  63.2189960  54.8859620
   8.2125350  62.2975040  54.3665960   4.8081010  55.6369100  64.4489360
   5.1761830  54.8164310  64.7768930   3.9479210  55.6970990  64.8645010
   8.1743040  54.5926040  55.2576920   7.5456200  54.6971710  54.5435150
   7.6794960  54.8122820  56.0470800   2.6201180  66.3131630  52.6910900
   2.7213160  66.1095620  51.7612880   1.7202920  66.0589910  52.8958680
   1.7683000  58.2908690  64.6727330   2.2668250  58.7654510  65.3379180
   1.9105950  57.3672210  64.8797360   4.1742500  53.5962650  58.1130590
   4.0510280  53.6148780  57.1640100   5.1227060  53.6441590  58.2328990
   8.9749860  54.5076650  65.5155720   8.4723460  55.2482050  65.8549530
   9.7906520  54.8960650  65.1992510   7.2671870  59.7509830  58.9617080
   6.3262010  59.7660060  59.1364770   7.5815940  58.9645790  59.4077380
   9.2697450  66.9218680  60.6371340   9.3944870  67.7449850  61.1095150
  10.1363010  66.7109410  60.2895490   4.5837890  64.3075830  69.4449460
   3.9776050  64.3307430  68.7045210   4.2792000  63.5758870  69.9816710
   6.0138260  68.0356120  68.0558870   6.9660010  67.9514140  68.0059110
   5.8666480  68.6997830  68.7292660   8.9047460  67.4150330  53.5550780
   8.6188970  67.0015470  52.7404960   8.7067010  68.3438040  53.4351300
   3.6097420  62.4703640  52.5998380   3.0607520  62.9172940  53.2441120
   4.2316680  61.9652890  53.1236050   7.6632360  63.8245740  68.5320640
   8.4041830  64.1621500  68.0288100   6.9005040  63.9937800  67.9790410
   1.7900180  60.4532170  51.7440780   2.3105840  59.7381190  51.3781930
   2.4368580  61.0918040  52.0441290   6.3378020  61.8760570  67.0675850
   6.7519040  62.0305650  67.9166270   5.4029020  62.0015790  67.2301630
   6.8100190  59.2156730  69.0715000   7.3920960  58.4609050  68.9835480
   6.9861960  59.7464170  68.2946480   3.4357150  59.5597230  66.4209620
   3.5553360  58.9638370  67.1604460   4.2951150  59.5966920  66.0010920
   5.7745050  60.1134420  64.9972130   5.2480270  60.6377040  64.3937270
   6.1176390  60.7461810  65.6281860   5.0219350  55.7184390  67.9118460
   4.3334870  55.0565930  67.8468450   5.7425370  55.2722660  68.3566920
   5.6519750  52.3136020  53.9708720   5.9322040  51.4703920  54.3268140
   4.8785480  52.5459130  54.4847470   2.3548210  68.5343780  54.0342520
   3.2499000  68.8728750  54.0561280   2.3865840  67.8123190  53.4066800
   9.3342560  67.0647450  66.7408720   8.7344550  67.1240010  65.9972640
   9.4636460  66.1252430  66.8705570  10.5744010  64.8065270  52.0778430
   9.7436970  64.8741920  52.5485660  10.7515840  65.6969390  51.7745290
  10.0300470  61.5512750  54.5812630  10.7919380  62.1209400  54.6872320
  10.0454840  60.9839950  55.3520940  11.0360440  62.4062850  59.4254560
  11.4069270  61.6230170  59.0190530  11.6762370  63.0951950  59.2471860
   8.0194200  63.7899430  64.8384880   7.2054040  64.2196590  65.1010670
   8.4268400  64.4017840  64.2253930  10.0819640  61.8447120  51.7385150
  10.3568480  62.7526000  51.6104370   9.8930380  61.7809650  52.6747140
   6.4795250  54.8691970  53.0338780   6.8980130  54.6822950  52.1935440
   6.1731310  54.0171020  53.3441710   9.9784980  59.7816110  56.7314580
   9.6028580  59.0144040  56.2995870   9.2488100  60.1638810  57.2189510
   9.3684600  58.9287630  66.3654100   9.1370690  58.7000380  65.4652050
   9.6289150  59.8487180  66.3198990   7.8072670  54.1544060  69.1433800
   8.6842850  54.1627460  69.5267800   7.8193510  53.4174900  68.5326150
   9.2535940  58.0073600  60.0321820   9.7773420  57.5136250  59.4011990
   9.8395360  58.1423960  60.7769390   9.4325660  58.0913470  63.5541370
   8.4828370  58.0577010  63.6686360   9.6138670  59.0013580  63.3191140
   8.7435910  57.2646950  55.9714230   9.2395030  57.0317820  56.7563110
   8.5451980  56.4258790  55.5551870  10.1723070  55.9007900  58.5051910
  10.0622350  55.7463940  59.4434180  10.9330660  55.3728840  58.2627320
   8.5188790  51.8402030  64.9634910   9.1561010  52.4536170  65.3294100
   8.6663680  51.8762690  64.0184140  11.0613340  53.7315820  51.7458050
  11.9862650  53.5997000  51.5376340  11.0389130  53.8108640  52.6994500
  11.1351830  54.5026480  54.3714760  10.3403330  54.4371600  54.9007670
  11.3395110  55.4377120  54.3600110   8.0770250  68.5418030  58.3653150
   8.6729320  68.2202600  57.6887570   8.3348400  68.0689850  59.1566420
   1.8893270  52.9928220  67.8710010   1.8282160  53.5850050  68.6205420
   2.8293650  52.8854180  67.7260270   4.5267830  52.6498280  67.5102300
   5.1408240  52.9677570  66.8483380   5.0717390  52.1646870  68.1298160
  10.9443010  68.5489910  64.9164140  10.4501290  68.9458780  64.1991270
  10.3356300  67.9239120  65.3101420   5.2675870  51.2130420  63.8371590
   4.3935710  51.5465530  63.6344520   5.1586620  50.7403600  64.6623460
   6.1747850  53.4201290  65.2213310   5.8461210  52.6053050  64.8415040
   7.1230150  53.3771100  65.0979000   8.6282460  69.1913330  62.1950880
   8.1685430  69.9429140  61.8208900   7.9994920  68.4719800  62.1365680
   1.7973680  68.3910060  62.1967990   2.0851490  68.1364360  61.3201000
   2.3096900  67.8387420  62.7873560   3.0150690  52.1300260  62.7764500
   2.2322480  52.6045760  63.0561260   2.7213620  51.2255090  62.6677680
   7.5671760  52.8323360  60.8213590   8.0079850  52.7768460  59.9735190
   7.2979350  53.7481370  60.8923770   9.4310330  52.4638600  58.8322410
   9.3698730  51.5199820  58.6853430  10.2102360  52.5718690  59.3775870
   5.4029890  51.2129460  59.5263600   6.0059260  51.7849670  60.0012120
   4.6622880  51.7768900  59.3037500   8.5464490  51.6151020  54.8003880
   8.7415120  52.5134470  55.0671310   7.7594360  51.3838100  55.2936830
   1.8646040  69.3126160  69.5636190   2.7913350  69.0770430  69.6072150
   1.8496470  70.1398160  69.0822220  10.0991100  68.8551730  56.5610440
  10.2743290  68.1689470  55.9171360   9.4012670  69.3798780  56.1687110
   5.6525110  51.3924490  69.9058540   5.5390560  51.7119100  70.8010060
   6.4694850  51.7937000  69.6095820   8.4323600  68.5396020  69.3877230
   9.2248920  68.0445250  69.1803190   8.7256750  69.2186160  69.9952840
   4.5583260  59.4116960  40.2693280   4.4777310  58.4971570  39.9984990
   4.1447680  59.9084030  39.5632990   2.6901300  61.1895980  42.1502550
   1.9143400  60.7096420  42.4401120   3.3414230  60.5101630  41.9758710
   6.7108730  65.5956170  40.9301680   6.2490260  64.8243410  41.2588850
   7.5234280  65.6222240  41.4354130   2.9372040  67.8814180  40.5505670
   2.3183480  68.3371680  39.9800110   3.7923820  68.0365640  40.1495370
   2.1310290  63.8653170  42.1572710   2.0618570  62.9243110  41.9961840
   2.8930150  63.9554580  42.7295280   3.1615460  56.6723550  42.3841640
   3.5380280  55.7995430  42.2715310   3.0634970  57.0082250  41.4932080
   6.9439580  54.1673990  39.3169980   7.7649200  53.6770560  39.3595460
   6.9773660  54.7571650  40.0701820  11.2339130  56.1840740  45.8813610
  10.5291300  56.5722450  45.3628720  11.4997050  56.8791030  46.4834540
   3.8035390  62.7653420  37.9437580   3.1852660  63.2302870  37.3800300
   4.3158640  63.4580900  38.3607090   7.1801060  56.1074370  42.0897520
   6.4756630  56.3959260  42.6700630   7.5413220  56.9174480  41.7297080
   8.7963840  65.7249500  44.3525000   8.1127360  66.3948610  44.3441670
   9.3358130  65.9230150  43.5869860  10.2487980  55.5529160  42.4806730
   9.3012890  55.5868140  42.6122160  10.5737970  56.3668110  42.8656090
   6.3322580  67.5693630  43.0670180   6.3449740  67.1655920  42.1992440
   5.7797800  68.3440920  42.9631610   7.6268000  64.2909850  38.1560350
   7.5164330  63.3484180  38.2809770   7.6236250  64.6525490  39.0423110
   5.7308020  62.4723470  44.3952790   6.1476810  62.2583580  43.5606250
   6.4547840  62.7296260  44.9661410   3.1688280  59.9175170  37.5122840
   2.2417560  59.8512550  37.7411310   3.3213100  60.8555300  37.3978080
   3.1557360  56.1892170  34.5090000   2.2161030  56.3506130  34.5942460
   3.4740620  56.9077850  33.9625990   9.6770120  60.8710690  44.4869030
   8.8488750  60.9403780  44.0119160  10.2720600  61.4565000  44.0184860
   7.1985570  61.4795470  38.0158090   6.5797990  61.1415020  37.3684390
   7.1810020  60.8355230  38.7237280   6.6412130  57.6580010  45.4323900
   6.2283310  58.4833720  45.6863890   5.9088080  57.0725050  45.2400260
   7.3312230  67.7039340  46.1204880   6.8542790  68.5111530  45.9277490
   6.6474020  67.0517670  46.2731090   5.3750270  60.7182280  35.0230840
   5.8143550  59.8804710  34.8768660   6.0878690  61.3511680  35.1094980
   3.4845650  65.6578350  38.9912080   3.9241560  66.4002680  38.5767470
   3.4232540  65.9004920  39.9151040   8.9567410  51.9725090  33.3371880
   8.6440070  52.0651920  34.2370950   9.7179880  52.5506120  33.2869310
  10.9111440  67.4651280  51.1896270  11.3871160  67.9434170  51.8685350
  11.5318600  67.3968770  50.4641770  10.3144690  64.6564130  48.3496280
  10.4407750  64.4176010  47.4313460  10.3566070  63.8248670  48.8218360
   4.1761430  68.3592130  46.9191090   4.6906100  68.2700140  47.7213520
   3.3330510  68.7051830  47.2119000   6.1515830  68.6447470  36.3475090
   5.9916970  68.3550410  37.2456920   5.9862540  67.8687600  35.8120320
   5.8541960  66.1535030  34.9073090   5.1607120  66.1512320  34.2475370
   6.5964820  65.7294350  34.4767260   5.4191890  67.7797740  38.9821580
   5.8748840  66.9987120  39.2960200   5.7584410  68.4904560  39.5262760
  10.1668700  56.7096590  49.3146020   9.5512970  57.2176260  48.7861480
   9.8465120  55.8094920  49.2571960   2.2283020  55.5488480  46.7808210
   1.7662390  55.7571500  47.5928150   1.8261130  54.7347830  46.4778880
   7.2287530  56.7697430  47.9104870   6.3781120  56.4703180  48.2313940
   7.0689320  57.0139440  46.9988690   4.3237240  58.2699180  50.0103660
   4.6490650  57.4362930  49.6705890   5.1117570  58.7927700  50.1581990
   4.9625190  57.8116900  37.5044790   4.3634080  58.5352700  37.3208410
   5.5104800  57.7493680  36.7221240   3.5690060  56.4480440  39.5348070
   3.9619630  56.7652640  38.7216760   3.9306910  55.5692320  39.6492590
   4.1545200  59.0386190  43.6298850   3.4226320  59.5473000  43.9788950
   3.7569540  58.2216170  43.3287630   4.6171110  54.4919870  43.0421790
   4.6343850  54.9428520  43.8863640   4.3686690  53.5925510  43.2555230
   8.0441860  51.9052050  48.8808170   8.3687630  51.1741710  49.4066150
   8.0798370  51.5865690  47.9789160   7.9699700  62.0177160  42.4894200
   8.6898820  62.5132450  42.0990310   7.7681520  61.3395050  41.8448070
   3.4309640  53.4115120  36.6323590   2.6174250  52.9128290  36.5568900
   3.2371590  54.2513370  36.2159940   3.3518500  62.0886220  48.3763200
   3.2855810  61.1681890  48.1220790   2.7223640  62.1861660  49.0907840
   6.1458030  57.7834770  34.9285750   7.0337650  58.0952000  34.7537090
   6.1163120  56.9107020  34.5366330   3.2835230  64.9106790  48.1267000
   3.2979770  63.9787750  47.9085910   2.5760330  64.9966550  48.7656770
   8.4172300  59.0946610  34.3965610   8.3336020  59.5260830  33.5462050
   9.1366490  59.5544960  34.8292430   9.4946440  61.5514130  47.4735580
   8.7694630  62.1442910  47.2764970  10.0221900  61.5437670  46.6748950
   9.4459550  65.9488870  37.1247740   8.8035710  65.2944490  37.3991460
   9.0590210  66.3543960  36.3488410   5.0246030  63.2774300  40.9719430
   5.3769850  62.6802430  40.3120800   4.1408360  62.9518530  41.1427680
   2.7169130  66.5524360  45.2207500   3.3611350  66.7583740  45.8980920
   3.0798570  65.7912760  44.7678350   3.9901210  64.5556710  43.9384950
   4.6323440  63.8549870  44.0517120   4.5150560  65.3355150  43.7581840
   7.8356930  64.8405330  33.6624090   7.6094510  64.1235770  34.2548730
   7.4453130  64.5917770  32.8245840   5.7638830  65.3551610  47.1421010
   6.0995070  65.9418300  47.8198930   4.8439170  65.2244320  47.3718800
   7.4173180  62.7577270  35.3238250   7.1294880  63.2189960  36.1116130
   8.2125350  62.2975040  35.5922470   4.8081010  55.6369100  45.6745870
   5.1761830  54.8164310  46.0025440   3.9479210  55.6970990  46.0901520
   8.1743040  54.5926040  36.4833430   7.5456200  54.6971710  35.7691660
   7.6794960  54.8122820  37.2727310   2.6201180  66.3131630  33.9167410
   2.7213160  66.1095620  32.9869390   1.7202920  66.0589910  34.1215190
   1.7683000  58.2908690  45.8983840   2.2668250  58.7654510  46.5635690
   1.9105950  57.3672210  46.1053870   4.1742500  53.5962650  39.3387100
   4.0510280  53.6148780  38.3896610   5.1227060  53.6441590  39.4585500
   8.9749860  54.5076650  46.7412230   8.4723460  55.2482050  47.0806040
   9.7906520  54.8960650  46.4249020   7.2671870  59.7509830  40.1873590
   6.3262010  59.7660060  40.3621280   7.5815940  58.9645790  40.6333890
   9.2697450  66.9218680  41.8627850   9.3944870  67.7449850  42.3351660
  10.1363010  66.7109410  41.5152000   4.5837890  64.3075830  50.6705970
   3.9776050  64.3307430  49.9301720   4.2792000  63.5758870  51.2073220
   6.0138260  68.0356120  49.2815380   6.9660010  67.9514140  49.2315620
   5.8666480  68.6997830  49.9549170   8.9047460  67.4150330  34.7807290
   8.6188970  67.0015470  33.9661470   8.7067010  68.3438040  34.6607810
   3.6097420  62.4703640  33.8254890   3.0607520  62.9172940  34.4697630
   4.2316680  61.9652890  34.3492560   7.6632360  63.8245740  49.7577150
   8.4041830  64.1621500  49.2544610   6.9005040  63.9937800  49.2046920
   1.7900180  60.4532170  32.9697290   2.3105840  59.7381190  32.6038440
   2.4368580  61.0918040  33.2697800   6.3378020  61.8760570  48.2932360
   6.7519040  62.0305650  49.1422780   5.4029020  62.0015790  48.4558140
   6.8100190  59.2156730  50.2971510   7.3920960  58.4609050  50.2091990
   6.9861960  59.7464170  49.5202990   3.4357150  59.5597230  47.6466130
   3.5553360  58.9638370  48.3860970   4.2951150  59.5966920  47.2267430
   5.7745050  60.1134420  46.2228640   5.2480270  60.6377040  45.6193780
   6.1176390  60.7461810  46.8538370   5.0219350  55.7184390  49.1374970
   4.3334870  55.0565930  49.0724960   5.7425370  55.2722660  49.5823430
   5.6519750  52.3136020  35.1965230   5.9322040  51.4703920  35.5524650
   4.8785480  52.5459130  35.7103980   2.3548210  68.5343780  35.2599030
   3.2499000  68.8728750  35.2817790   2.3865840  67.8123190  34.6323310
   9.3342560  67.0647450  47.9665230   8.7344550  67.1240010  47.2229150
   9.4636460  66.1252430  48.0962080  10.5744010  64.8065270  33.3034940
   9.7436970  64.8741920  33.7742170  10.7515840  65.6969390  33.0001800
  10.0300470  61.5512750  35.8069140  10.7919380  62.1209400  35.9128830
  10.0454840  60.9839950  36.5777450  11.0360440  62.4062850  40.6511070
  11.4069270  61.6230170  40.2447040  11.6762370  63.0951950  40.4728370
   8.0194200  63.7899430  46.0641390   7.2054040  64.2196590  46.3267180
   8.4268400  64.4017840  45.4510440  10.0819640  61.8447120  32.9641660
  10.3568480  62.7526000  32.8360880   9.8930380  61.7809650  33.9003650
   6.4795250  54.8691970  34.2595290   6.8980130  54.6822950  33.4191950
   6.1731310  54.0171020  34.5698220   9.9784980  59.7816110  37.9571090
   9.6028580  59.0144040  37.5252380   9.2488100  60.1638810  38.4446020
   9.3684600  58.9287630  47.5910610   9.1370690  58.7000380  46.6908560
   9.6289150  59.8487180  47.5455500   7.8072670  54.1544060  50.3690310
   8.6842850  54.1627460  50.7524310   7.8193510  53.4174900  49.7582660
   9.2535940  58.0073600  41.2578330   9.7773420  57.5136250  40.6268500
   9.8395360  58.1423960  42.0025900   9.4325660  58.0913470  44.7797880
   8.4828370  58.0577010  44.8942870   9.6138670  59.0013580  44.5447650
   8.7435910  57.2646950  37.1970740   9.2395030  57.0317820  37.9819620
   8.5451980  56.4258790  36.7808380  10.1723070  55.9007900  39.7308420
  10.0622350  55.7463940  40.6690690  10.9330660  55.3728840  39.4883830
   8.5188790  51.8402030  46.1891420   9.1561010  52.4536170  46.5550610
   8.6663680  51.8762690  45.2440650  11.0613340  53.7315820  32.9714560
  11.9862650  53.5997000  32.7632850  11.0389130  53.8108640  33.9251010
  11.1351830  54.5026480  35.5971270  10.3403330  54.4371600  36.1264180
  11.3395110  55.4377120  35.5856620   8.0770250  68.5418030  39.5909660
   8.6729320  68.2202600  38.9144080   8.3348400  68.0689850  40.3822930
   1.8893270  52.9928220  49.0966520   1.8282160  53.5850050  49.8461930
   2.8293650  52.8854180  48.9516780   4.5267830  52.6498280  48.7358810
   5.1408240  52.9677570  48.0739890   5.0717390  52.1646870  49.3554670
  10.9443010  68.5489910  46.1420650  10.4501290  68.9458780  45.4247780
  10.3356300  67.9239120  46.5357930   5.2675870  51.2130420  45.0628100
   4.3935710  51.5465530  44.8601030   5.1586620  50.7403600  45.8879970
   6.1747850  53.4201290  46.4469820   5.8461210  52.6053050  46.0671550
   7.1230150  53.3771100  46.3235510   8.6282460  69.1913330  43.4207390
   8.1685430  69.9429140  43.0465410   7.9994920  68.4719800  43.3622190
   1.7973680  68.3910060  43.4224500   2.0851490  68.1364360  42.5457510
   2.3096900  67.8387420  44.0130070   3.0150690  52.1300260  44.0021010
   2.2322480  52.6045760  44.2817770   2.7213620  51.2255090  43.8934190
   7.5671760  52.8323360  42.0470100   8.0079850  52.7768460  41.1991700
   7.2979350  53.7481370  42.1180280   9.4310330  52.4638600  40.0578920
   9.3698730  51.5199820  39.9109940  10.2102360  52.5718690  40.6032380
   5.4029890  51.2129460  40.7520110   6.0059260  51.7849670  41.2268630
   4.6622880  51.7768900  40.5294010   8.5464490  51.6151020  36.0260390
   8.7415120  52.5134470  36.2927820   7.7594360  51.3838100  36.5193340
   1.8646040  69.3126160  50.7892700   2.7913350  69.0770430  50.8328660
   1.8496470  70.1398160  50.3078730  10.0991100  68.8551730  37.7866950
  10.2743290  68.1689470  37.1427870   9.4012670  69.3798780  37.3943620
   5.6525110  51.3924490  51.1315050   5.5390560  51.7119100  52.0266570
   6.4694850  51.7937000  50.8352330   8.4323600  68.5396020  50.6133740
   9.2248920  68.0445250  50.4059700   8.7256750  69.2186160  51.2209350
   4.5583260  59.4116960  21.4949790   4.4777310  58.4971570  21.2241500
   4.1447680  59.9084030  20.7889500   2.6901300  61.1895980  23.3759060
   1.9143400  60.7096420  23.6657630   3.3414230  60.5101630  23.2015220
   6.7108730  65.5956170  22.1558190   6.2490260  64.8243410  22.4845360
   7.5234280  65.6222240  22.6610640   2.9372040  67.8814180  21.7762180
   2.3183480  68.3371680  21.2056620   3.7923820  68.0365640  21.3751880
   2.1310290  63.8653170  23.3829220   2.0618570  62.9243110  23.2218350
   2.8930150  63.9554580  23.9551790   3.1615460  56.6723550  23.6098150
   3.5380280  55.7995430  23.4971820   3.0634970  57.0082250  22.7188590
   6.9439580  54.1673990  20.5426490   7.7649200  53.6770560  20.5851970
   6.9773660  54.7571650  21.2958330  11.2339130  56.1840740  27.1070120
  10.5291300  56.5722450  26.5885230  11.4997050  56.8791030  27.7091050
   3.8035390  62.7653420  19.1694090   3.1852660  63.2302870  18.6056810
   4.3158640  63.4580900  19.5863600   7.1801060  56.1074370  23.3154030
   6.4756630  56.3959260  23.8957140   7.5413220  56.9174480  22.9553590
   8.7963840  65.7249500  25.5781510   8.1127360  66.3948610  25.5698180
   9.3358130  65.9230150  24.8126370  10.2487980  55.5529160  23.7063240
   9.3012890  55.5868140  23.8378670  10.5737970  56.3668110  24.0912600
   6.3322580  67.5693630  24.2926690   6.3449740  67.1655920  23.4248950
   5.7797800  68.3440920  24.1888120   7.6268000  64.2909850  19.3816860
   7.5164330  63.3484180  19.5066280   7.6236250  64.6525490  20.2679620
   5.7308020  62.4723470  25.6209300   6.1476810  62.2583580  24.7862760
   6.4547840  62.7296260  26.1917920   3.1688280  59.9175170  18.7379350
   2.2417560  59.8512550  18.9667820   3.3213100  60.8555300  18.6234590
   3.1557360  56.1892170  15.7346510   2.2161030  56.3506130  15.8198970
   3.4740620  56.9077850  15.1882500   9.6770120  60.8710690  25.7125540
   8.8488750  60.9403780  25.2375670  10.2720600  61.4565000  25.2441370
   7.1985570  61.4795470  19.2414600   6.5797990  61.1415020  18.5940900
   7.1810020  60.8355230  19.9493790   6.6412130  57.6580010  26.6580410
   6.2283310  58.4833720  26.9120400   5.9088080  57.0725050  26.4656770
   7.3312230  67.7039340  27.3461390   6.8542790  68.5111530  27.1534000
   6.6474020  67.0517670  27.4987600   5.3750270  60.7182280  16.2487350
   5.8143550  59.8804710  16.1025170   6.0878690  61.3511680  16.3351490
   3.4845650  65.6578350  20.2168590   3.9241560  66.4002680  19.8023980
   3.4232540  65.9004920  21.1407550   8.9567410  51.9725090  14.5628390
   8.6440070  52.0651920  15.4627460   9.7179880  52.5506120  14.5125820
  10.9111440  67.4651280  32.4152780  11.3871160  67.9434170  33.0941860
  11.5318600  67.3968770  31.6898280  10.3144690  64.6564130  29.5752790
  10.4407750  64.4176010  28.6569970  10.3566070  63.8248670  30.0474870
   4.1761430  68.3592130  28.1447600   4.6906100  68.2700140  28.9470030
   3.3330510  68.7051830  28.4375510   6.1515830  68.6447470  17.5731600
   5.9916970  68.3550410  18.4713430   5.9862540  67.8687600  17.0376830
   5.8541960  66.1535030  16.1329600   5.1607120  66.1512320  15.4731880
   6.5964820  65.7294350  15.7023770   5.4191890  67.7797740  20.2078090
   5.8748840  66.9987120  20.5216710   5.7584410  68.4904560  20.7519270
  10.1668700  56.7096590  30.5402530   9.5512970  57.2176260  30.0117990
   9.8465120  55.8094920  30.4828470   2.2283020  55.5488480  28.0064720
   1.7662390  55.7571500  28.8184660   1.8261130  54.7347830  27.7035390
   7.2287530  56.7697430  29.1361380   6.3781120  56.4703180  29.4570450
   7.0689320  57.0139440  28.2245200   4.3237240  58.2699180  31.2360170
   4.6490650  57.4362930  30.8962400   5.1117570  58.7927700  31.3838500
   4.9625190  57.8116900  18.7301300   4.3634080  58.5352700  18.5464920
   5.5104800  57.7493680  17.9477750   3.5690060  56.4480440  20.7604580
   3.9619630  56.7652640  19.9473270   3.9306910  55.5692320  20.8749100
   4.1545200  59.0386190  24.8555360   3.4226320  59.5473000  25.2045460
   3.7569540  58.2216170  24.5544140   4.6171110  54.4919870  24.2678300
   4.6343850  54.9428520  25.1120150   4.3686690  53.5925510  24.4811740
   8.0441860  51.9052050  30.1064680   8.3687630  51.1741710  30.6322660
   8.0798370  51.5865690  29.2045670   7.9699700  62.0177160  23.7150710
   8.6898820  62.5132450  23.3246820   7.7681520  61.3395050  23.0704580
   3.4309640  53.4115120  17.8580100   2.6174250  52.9128290  17.7825410
   3.2371590  54.2513370  17.4416450   3.3518500  62.0886220  29.6019710
   3.2855810  61.1681890  29.3477300   2.7223640  62.1861660  30.3164350
   6.1458030  57.7834770  16.1542260   7.0337650  58.0952000  15.9793600
   6.1163120  56.9107020  15.7622840   3.2835230  64.9106790  29.3523510
   3.2979770  63.9787750  29.1342420   2.5760330  64.9966550  29.9913280
   8.4172300  59.0946610  15.6222120   8.3336020  59.5260830  14.7718560
   9.1366490  59.5544960  16.0548940   9.4946440  61.5514130  28.6992090
   8.7694630  62.1442910  28.5021480  10.0221900  61.5437670  27.9005460
   9.4459550  65.9488870  18.3504250   8.8035710  65.2944490  18.6247970
   9.0590210  66.3543960  17.5744920   5.0246030  63.2774300  22.1975940
   5.3769850  62.6802430  21.5377310   4.1408360  62.9518530  22.3684190
   2.7169130  66.5524360  26.4464010   3.3611350  66.7583740  27.1237430
   3.0798570  65.7912760  25.9934860   3.9901210  64.5556710  25.1641460
   4.6323440  63.8549870  25.2773630   4.5150560  65.3355150  24.9838350
   7.8356930  64.8405330  14.8880600   7.6094510  64.1235770  15.4805240
   7.4453130  64.5917770  14.0502350   5.7638830  65.3551610  28.3677520
   6.0995070  65.9418300  29.0455440   4.8439170  65.2244320  28.5975310
   7.4173180  62.7577270  16.5494760   7.1294880  63.2189960  17.3372640
   8.2125350  62.2975040  16.8178980   4.8081010  55.6369100  26.9002380
   5.1761830  54.8164310  27.2281950   3.9479210  55.6970990  27.3158030
   8.1743040  54.5926040  17.7089940   7.5456200  54.6971710  16.9948170
   7.6794960  54.8122820  18.4983820   2.6201180  66.3131630  15.1423920
   2.7213160  66.1095620  14.2125900   1.7202920  66.0589910  15.3471700
   1.7683000  58.2908690  27.1240350   2.2668250  58.7654510  27.7892200
   1.9105950  57.3672210  27.3310380   4.1742500  53.5962650  20.5643610
   4.0510280  53.6148780  19.6153120   5.1227060  53.6441590  20.6842010
   8.9749860  54.5076650  27.9668740   8.4723460  55.2482050  28.3062550
   9.7906520  54.8960650  27.6505530   7.2671870  59.7509830  21.4130100
   6.3262010  59.7660060  21.5877790   7.5815940  58.9645790  21.8590400
   9.2697450  66.9218680  23.0884360   9.3944870  67.7449850  23.5608170
  10.1363010  66.7109410  22.7408510   4.5837890  64.3075830  31.8962480
   3.9776050  64.3307430  31.1558230   4.2792000  63.5758870  32.4329730
   6.0138260  68.0356120  30.5071890   6.9660010  67.9514140  30.4572130
   5.8666480  68.6997830  31.1805680   8.9047460  67.4150330  16.0063800
   8.6188970  67.0015470  15.1917980   8.7067010  68.3438040  15.8864320
   3.6097420  62.4703640  15.0511400   3.0607520  62.9172940  15.6954140
   4.2316680  61.9652890  15.5749070   7.6632360  63.8245740  30.9833660
   8.4041830  64.1621500  30.4801120   6.9005040  63.9937800  30.4303430
   1.7900180  60.4532170  14.1953800   2.3105840  59.7381190  13.8294950
   2.4368580  61.0918040  14.4954310   6.3378020  61.8760570  29.5188870
   6.7519040  62.0305650  30.3679290   5.4029020  62.0015790  29.6814650
   6.8100190  59.2156730  31.5228020   7.3920960  58.4609050  31.4348500
   6.9861960  59.7464170  30.7459500   3.4357150  59.5597230  28.8722640
   3.5553360  58.9638370  29.6117480   4.2951150  59.5966920  28.4523940
   5.7745050  60.1134420  27.4485150   5.2480270  60.6377040  26.8450290
   6.1176390  60.7461810  28.0794880   5.0219350  55.7184390  30.3631480
   4.3334870  55.0565930  30.2981470   5.7425370  55.2722660  30.8079940
   5.6519750  52.3136020  16.4221740   5.9322040  51.4703920  16.7781160
   4.8785480  52.5459130  16.9360490   2.3548210  68.5343780  16.4855540
   3.2499000  68.8728750  16.5074300   2.3865840  67.8123190  15.8579820
   9.3342560  67.0647450  29.1921740   8.7344550  67.1240010  28.4485660
   9.4636460  66.1252430  29.3218590  10.5744010  64.8065270  14.5291450
   9.7436970  64.8741920  14.9998680  10.7515840  65.6969390  14.2258310
  10.0300470  61.5512750  17.0325650  10.7919380  62.1209400  17.1385340
  10.0454840  60.9839950  17.8033960  11.0360440  62.4062850  21.8767580
  11.4069270  61.6230170  21.4703550  11.6762370  63.0951950  21.6984880
   8.0194200  63.7899430  27.2897900   7.2054040  64.2196590  27.5523690
   8.4268400  64.4017840  26.6766950  10.0819640  61.8447120  14.1898170
  10.3568480  62.7526000  14.0617390   9.8930380  61.7809650  15.1260160
   6.4795250  54.8691970  15.4851800   6.8980130  54.6822950  14.6448460
   6.1731310  54.0171020  15.7954730   9.9784980  59.7816110  19.1827600
   9.6028580  59.0144040  18.7508890   9.2488100  60.1638810  19.6702530
   9.3684600  58.9287630  28.8167120   9.1370690  58.7000380  27.9165070
   9.6289150  59.8487180  28.7712010   7.8072670  54.1544060  31.5946820
   8.6842850  54.1627460  31.9780820   7.8193510  53.4174900  30.9839170
   9.2535940  58.0073600  22.4834840   9.7773420  57.5136250  21.8525010
   9.8395360  58.1423960  23.2282410   9.4325660  58.0913470  26.0054390
   8.4828370  58.0577010  26.1199380   9.6138670  59.0013580  25.7704160
   8.7435910  57.2646950  18.4227250   9.2395030  57.0317820  19.2076130
   8.5451980  56.4258790  18.0064890  10.1723070  55.9007900  20.9564930
  10.0622350  55.7463940  21.8947200  10.9330660  55.3728840  20.7140340
   8.5188790  51.8402030  27.4147930   9.1561010  52.4536170  27.7807120
   8.6663680  51.8762690  26.4697160  11.0613340  53.7315820  14.1971070
  11.9862650  53.5997000  13.9889360  11.0389130  53.8108640  15.1507520
  11.1351830  54.5026480  16.8227780  10.3403330  54.4371600  17.3520690
  11.3395110  55.4377120  16.8113130   8.0770250  68.5418030  20.8166170
   8.6729320  68.2202600  20.1400590   8.3348400  68.0689850  21.6079440
   1.8893270  52.9928220  30.3223030   1.8282160  53.5850050  31.0718440
   2.8293650  52.8854180  30.1773290   4.5267830  52.6498280  29.9615320
   5.1408240  52.9677570  29.2996400   5.0717390  52.1646870  30.5811180
  10.9443010  68.5489910  27.3677160  10.4501290  68.9458780  26.6504290
  10.3356300  67.9239120  27.7614440   5.2675870  51.2130420  26.2884610
   4.3935710  51.5465530  26.0857540   5.1586620  50.7403600  27.1136480
   6.1747850  53.4201290  27.6726330   5.8461210  52.6053050  27.2928060
   7.1230150  53.3771100  27.5492020   8.6282460  69.1913330  24.6463900
   8.1685430  69.9429140  24.2721920   7.9994920  68.4719800  24.5878700
   1.7973680  68.3910060  24.6481010   2.0851490  68.1364360  23.7714020
   2.3096900  67.8387420  25.2386580   3.0150690  52.1300260  25.2277520
   2.2322480  52.6045760  25.5074280   2.7213620  51.2255090  25.1190700
   7.5671760  52.8323360  23.2726610   8.0079850  52.7768460  22.4248210
   7.2979350  53.7481370  23.3436790   9.4310330  52.4638600  21.2835430
   9.3698730  51.5199820  21.1366450  10.2102360  52.5718690  21.8288890
   5.4029890  51.2129460  21.9776620   6.0059260  51.7849670  22.4525140
   4.6622880  51.7768900  21.7550520   8.5464490  51.6151020  17.2516900
   8.7415120  52.5134470  17.5184330   7.7594360  51.3838100  17.7449850
   1.8646040  69.3126160  32.0149210   2.7913350  69.0770430  32.0585170
   1.8496470  70.1398160  31.5335240  10.0991100  68.8551730  19.0123460
  10.2743290  68.1689470  18.3684380   9.4012670  69.3798780  18.6200130
   5.6525110  51.3924490  32.3571560   5.5390560  51.7119100  33.2523080
   6.4694850  51.7937000  32.0608840   8.4323600  68.5396020  31.8390250
   9.2248920  68.0445250  31.6316210   8.7256750  69.2186160  32.4465860
   4.5583260  59.4116960   2.7206300   4.4777310  58.4971570   2.4498010
   4.1447680  59.9084030   2.0146010   2.6901300  61.1895980   4.6015570
   1.9143400  60.7096420   4.8914140   3.3414230  60.5101630   4.4271730
   6.7108730  65.5956170   3.3814700   6.2490260  64.8243410   3.7101870
   7.5234280  65.6222240   3.8867150   2.9372040  67.8814180   3.0018690
   2.3183480  68.3371680   2.4313130   3.7923820  68.0365640   2.6008390
   2.1310290  63.8653170   4.6085730   2.0618570  62.9243110   4.4474860
   2.8930150  63.9554580   5.1808300   3.1615460  56.6723550   4.8354660
   3.5380280  55.7995430   4.7228330   3.0634970  57.0082250   3.9445100
   6.9439580  54.1673990   1.7683000   7.7649200  53.6770560   1.8108480
   6.9773660  54.7571650   2.5214840  11.2339130  56.1840740   8.3326630
  10.5291300  56.5722450   7.8141740  11.4997050  56.8791030   8.9347560
   7.1801060  56.1074370   4.5410540   6.4756630  56.3959260   5.1213650
   7.5413220  56.9174480   4.1810100   8.7963840  65.7249500   6.8038020
   8.1127360  66.3948610   6.7954690   9.3358130  65.9230150   6.0382880
  10.2487980  55.5529160   4.9319750   9.3012890  55.5868140   5.0635180
  10.5737970  56.3668110   5.3169110   6.3322580  67.5693630   5.5183200
   6.3449740  67.1655920   4.6505460   5.7797800  68.3440920   5.4144630
   5.7308020  62.4723470   6.8465810   6.1476810  62.2583580   6.0119270
   6.4547840  62.7296260   7.4174430   9.6770120  60.8710690   6.9382050
   8.8488750  60.9403780   6.4632180  10.2720600  61.4565000   6.4697880
   6.6412130  57.6580010   7.8836920   6.2283310  58.4833720   8.1376910
   5.9088080  57.0725050   7.6913280   7.3312230  67.7039340   8.5717900
   6.8542790  68.5111530   8.3790510   6.6474020  67.0517670   8.7244110
  10.9111440  67.4651280  13.6409290  11.3871160  67.9434170  14.3198370
  11.5318600  67.3968770  12.9154790  10.3144690  64.6564130  10.8009300
  10.4407750  64.4176010   9.8826480  10.3566070  63.8248670  11.2731380
   4.1761430  68.3592130   9.3704110   4.6906100  68.2700140  10.1726540
   3.3330510  68.7051830   9.6632020  10.1668700  56.7096590  11.7659040
   9.5512970  57.2176260  11.2374500   9.8465120  55.8094920  11.7084980
   2.2283020  55.5488480   9.2321230   1.7662390  55.7571500  10.0441170
   1.8261130  54.7347830   8.9291900   7.2287530  56.7697430  10.3617890
   6.3781120  56.4703180  10.6826960   7.0689320  57.0139440   9.4501710
   4.3237240  58.2699180  12.4616680   4.6490650  57.4362930  12.1218910
   5.1117570  58.7927700  12.6095010   4.1545200  59.0386190   6.0811870
   3.4226320  59.5473000   6.4301970   3.7569540  58.2216170   5.7800650
   4.6171110  54.4919870   5.4934810   4.6343850  54.9428520   6.3376660
   4.3686690  53.5925510   5.7068250   8.0441860  51.9052050  11.3321190
   8.3687630  51.1741710  11.8579170   8.0798370  51.5865690  10.4302180
   7.9699700  62.0177160   4.9407220   8.6898820  62.5132450   4.5503330
   7.7681520  61.3395050   4.2961090   3.3518500  62.0886220  10.8276220
   3.2855810  61.1681890  10.5733810   2.7223640  62.1861660  11.5420860
   3.2835230  64.9106790  10.5780020   3.2979770  63.9787750  10.3598930
   2.5760330  64.9966550  11.2169790   9.4946440  61.5514130   9.9248600
   8.7694630  62.1442910   9.7277990  10.0221900  61.5437670   9.1261970
   5.0246030  63.2774300   3.4232450   5.3769850  62.6802430   2.7633820
   4.1408360  62.9518530   3.5940700   2.7169130  66.5524360   7.6720520
   3.3611350  66.7583740   8.3493940   3.0798570  65.7912760   7.2191370
   3.9901210  64.5556710   6.3897970   4.6323440  63.8549870   6.5030140
   4.5150560  65.3355150   6.2094860   5.7638830  65.3551610   9.5934030
   6.0995070  65.9418300  10.2711950   4.8439170  65.2244320   9.8231820
   4.8081010  55.6369100   8.1258890   5.1761830  54.8164310   8.4538460
   3.9479210  55.6970990   8.5414540   1.7683000  58.2908690   8.3496860
   2.2668250  58.7654510   9.0148710   1.9105950  57.3672210   8.5566890
   8.9749860  54.5076650   9.1925250   8.4723460  55.2482050   9.5319060
   9.7906520  54.8960650   8.8762040   7.2671870  59.7509830   2.6386610
   6.3262010  59.7660060   2.8134300   7.5815940  58.9645790   3.0846910
   9.2697450  66.9218680   4.3140870   9.3944870  67.7449850   4.7864680
  10.1363010  66.7109410   3.9665020   4.5837890  64.3075830  13.1218990
   3.9776050  64.3307430  12.3814740   4.2792000  63.5758870  13.6586240
   6.0138260  68.0356120  11.7328400   6.9660010  67.9514140  11.6828640
   5.8666480  68.6997830  12.4062190   7.6632360  63.8245740  12.2090170
   8.4041830  64.1621500  11.7057630   6.9005040  63.9937800  11.6559940
   6.3378020  61.8760570  10.7445380   6.7519040  62.0305650  11.5935800
   5.4029020  62.0015790  10.9071160   6.8100190  59.2156730  12.7484530
   7.3920960  58.4609050  12.6605010   6.9861960  59.7464170  11.9716010
   3.4357150  59.5597230  10.0979150   3.5553360  58.9638370  10.8373990
   4.2951150  59.5966920   9.6780450   5.7745050  60.1134420   8.6741660
   5.2480270  60.6377040   8.0706800   6.1176390  60.7461810   9.3051390
   5.0219350  55.7184390  11.5887990   4.3334870  55.0565930  11.5237980
   5.7425370  55.2722660  12.0336450   9.3342560  67.0647450  10.4178250
   8.7344550  67.1240010   9.6742170   9.4636460  66.1252430  10.5475100
  11.0360440  62.4062850   3.1024090  11.4069270  61.6230170   2.6960060
  11.6762370  63.0951950   2.9241390   8.0194200  63.7899430   8.5154410
   7.2054040  64.2196590   8.7780200   8.4268400  64.4017840   7.9023460
   9.3684600  58.9287630  10.0423630   9.1370690  58.7000380   9.1421580
   9.6289150  59.8487180   9.9968520   7.8072670  54.1544060  12.8203330
   8.6842850  54.1627460  13.2037330   7.8193510  53.4174900  12.2095680
   9.2535940  58.0073600   3.7091350   9.7773420  57.5136250   3.0781520
   9.8395360  58.1423960   4.4538920   9.4325660  58.0913470   7.2310900
   8.4828370  58.0577010   7.3455890   9.6138670  59.0013580   6.9960670
  10.1723070  55.9007900   2.1821440  10.0622350  55.7463940   3.1203710
  10.9330660  55.3728840   1.9396850   8.5188790  51.8402030   8.6404440
   9.1561010  52.4536170   9.0063630   8.6663680  51.8762690   7.6953670
   1.8893270  52.9928220  11.5479540   1.8282160  53.5850050  12.2974950
   2.8293650  52.8854180  11.4029800   4.5267830  52.6498280  11.1871830
   5.1408240  52.9677570  10.5252910   5.0717390  52.1646870  11.8067690
  10.9443010  68.5489910   8.5933670  10.4501290  68.9458780   7.8760800
  10.3356300  67.9239120   8.9870950   5.2675870  51.2130420   7.5141120
   4.3935710  51.5465530   7.3114050   5.1586620  50.7403600   8.3392990
   6.1747850  53.4201290   8.8982840   5.8461210  52.6053050   8.5184570
   7.1230150  53.3771100   8.7748530   8.6282460  69.1913330   5.8720410
   8.1685430  69.9429140   5.4978430   7.9994920  68.4719800   5.8135210
   1.7973680  68.3910060   5.8737520   2.0851490  68.1364360   4.9970530
   2.3096900  67.8387420   6.4643090   3.0150690  52.1300260   6.4534030
   2.2322480  52.6045760   6.7330790   2.7213620  51.2255090   6.3447210
   7.5671760  52.8323360   4.4983120   8.0079850  52.7768460   3.6504720
   7.2979350  53.7481370   4.5693300   9.4310330  52.4638600   2.5091940
   9.3698730  51.5199820   2.3622960  10.2102360  52.5718690   3.0545400
   5.4029890  51.2129460   3.2033130   6.0059260  51.7849670   3.6781650
   4.6622880  51.7768900   2.9807030   1.8646040  69.3126160  13.2405720
   2.7913350  69.0770430  13.2841680   1.8496470  70.1398160  12.7591750
   5.6525110  51.3924490  13.5828070   5.5390560  51.7119100  14.4779590
   6.4694850  51.7937000  13.2865350   8.4323600  68.5396020  13.0646760
   9.2248920  68.0445250  12.8572720   8.7256750  69.2186160  13.6722370
   4.5583260  40.6373470  77.8180260   4.4777310  39.7228080  77.5471970
   4.1447680  41.1340540  77.1119970   2.6901300  42.4152490  79.6989530
   1.9143400  41.9352930  79.9888100   3.3414230  41.7358140  79.5245690
   6.7108730  46.8212680  78.4788660   6.2490260  46.0499920  78.8075830
   7.5234280  46.8478750  78.9841110   2.9372040  49.1070690  78.0992650
   2.3183480  49.5628190  77.5287090   3.7923820  49.2622150  77.6982350
   2.1310290  45.0909680  79.7059690   2.0618570  44.1499620  79.5448820
   2.8930150  45.1811090  80.2782260   3.1615460  37.8980060  79.9328620
   3.5380280  37.0251940  79.8202290   3.0634970  38.2338760  79.0419060
   6.9439580  35.3930500  76.8656960   7.7649200  34.9027070  76.9082440
   6.9773660  35.9828160  77.6188800   3.8035390  43.9909930  75.4924560
   3.1852660  44.4559380  74.9287280   4.3158640  44.6837410  75.9094070
   7.1801060  37.3330880  79.6384500   6.4756630  37.6215770  80.2187610
   7.5413220  38.1430990  79.2784060   8.7963840  46.9506010  81.9011980
   8.1127360  47.6205120  81.8928650   9.3358130  47.1486660  81.1356840
  10.2487980  36.7785670  80.0293710   9.3012890  36.8124650  80.1609140
  10.5737970  37.5924620  80.4143070   6.3322580  48.7950140  80.6157160
   6.3449740  48.3912430  79.7479420   5.7797800  49.5697430  80.5118590
   7.6268000  45.5166360  75.7047330   7.5164330  44.5740690  75.8296750
   7.6236250  45.8782000  76.5910090   3.1688280  41.1431680  75.0609820
   2.2417560  41.0769060  75.2898290   3.3213100  42.0811810  74.9465060
   3.1557360  37.4148680  72.0576980   2.2161030  37.5762640  72.1429440
   3.4740620  38.1334360  71.5112970   9.6770120  42.0967200  82.0356010
   8.8488750  42.1660290  81.5606140  10.2720600  42.6821510  81.5671840
   7.1985570  42.7051980  75.5645070   6.5797990  42.3671530  74.9171370
   7.1810020  42.0611740  76.2724260   5.3750270  41.9438790  72.5717820
   5.8143550  41.1061220  72.4255640   6.0878690  42.5768190  72.6581960
   3.4845650  46.8834860  76.5399060   3.9241560  47.6259190  76.1254450
   3.4232540  47.1261430  77.4638020   8.9567410  33.1981600  70.8858860
   8.6440070  33.2908430  71.7857930   9.7179880  33.7762630  70.8356290
   6.1515830  49.8703980  73.8962070   5.9916970  49.5806920  74.7943900
   5.9862540  49.0944110  73.3607300   5.8541960  47.3791540  72.4560070
   5.1607120  47.3768830  71.7962350   6.5964820  46.9550860  72.0254240
   5.4191890  49.0054250  76.5308560   5.8748840  48.2243630  76.8447180
   5.7584410  49.7161070  77.0749740   4.9625190  39.0373410  75.0531770
   4.3634080  39.7609210  74.8695390   5.5104800  38.9750190  74.2708220
   3.5690060  37.6736950  77.0835050   3.9619630  37.9909150  76.2703740
   3.9306910  36.7948830  77.1979570   4.1545200  40.2642700  81.1785830
   3.4226320  40.7729510  81.5275930   3.7569540  39.4472680  80.8774610
   4.6171110  35.7176380  80.5908770   4.6343850  36.1685030  81.4350620
   4.3686690  34.8182020  80.8042210   7.9699700  43.2433670  80.0381180
   8.6898820  43.7388960  79.6477290   7.7681520  42.5651560  79.3935050
   3.4309640  34.6371630  74.1810570   2.6174250  34.1384800  74.1055880
   3.2371590  35.4769880  73.7646920   6.1458030  39.0091280  72.4772730
   7.0337650  39.3208510  72.3024070   6.1163120  38.1363530  72.0853310
   8.4172300  40.3203120  71.9452590   8.3336020  40.7517340  71.0949030
   9.1366490  40.7801470  72.3779410   9.4459550  47.1745380  74.6734720
   8.8035710  46.5201000  74.9478440   9.0590210  47.5800470  73.8975390
   5.0246030  44.5030810  78.5206410   5.3769850  43.9058940  77.8607780
   4.1408360  44.1775040  78.6914660   3.9901210  45.7813220  81.4871930
   4.6323440  45.0806380  81.6004100   4.5150560  46.5611660  81.3068820
   7.8356930  46.0661840  71.2111070   7.6094510  45.3492280  71.8035710
   7.4453130  45.8174280  70.3732820   7.4173180  43.9833780  72.8725230
   7.1294880  44.4446470  73.6603110   8.2125350  43.5231550  73.1409450
   8.1743040  35.8182550  74.0320410   7.5456200  35.9228220  73.3178640
   7.6794960  36.0379330  74.8214290   2.6201180  47.5388140  71.4654390
   2.7213160  47.3352130  70.5356370   1.7202920  47.2846420  71.6702170
   4.1742500  34.8219160  76.8874080   4.0510280  34.8405290  75.9383590
   5.1227060  34.8698100  77.0072480   7.2671870  40.9766340  77.7360570
   6.3262010  40.9916570  77.9108260   7.5815940  40.1902300  78.1820870
   9.2697450  48.1475190  79.4114830   9.3944870  48.9706360  79.8838640
  10.1363010  47.9365920  79.0638980   8.9047460  48.6406840  72.3294270
   8.6188970  48.2271980  71.5148450   8.7067010  49.5694550  72.2094790
   3.6097420  43.6960150  71.3741870   3.0607520  44.1429450  72.0184610
   4.2316680  43.1909400  71.8979540   1.7900180  41.6788680  70.5184270
   2.3105840  40.9637700  70.1525420   2.4368580  42.3174550  70.8184780
   5.6519750  33.5392530  72.7452210   5.9322040  32.6960430  73.1011630
   4.8785480  33.7715640  73.2590960   2.3548210  49.7600290  72.8086010
   3.2499000  50.0985260  72.8304770   2.3865840  49.0379700  72.1810290
  10.5744010  46.0321780  70.8521920   9.7436970  46.0998430  71.3229150
  10.7515840  46.9225900  70.5488780  10.0300470  42.7769260  73.3556120
  10.7919380  43.3465910  73.4615810  10.0454840  42.2096460  74.1264430
  11.0360440  43.6319360  78.1998050  11.4069270  42.8486680  77.7934020
  11.6762370  44.3208460  78.0215350  10.0819640  43.0703630  70.5128640
  10.3568480  43.9782510  70.3847860   9.8930380  43.0066160  71.4490630
   6.4795250  36.0948480  71.8082270   6.8980130  35.9079460  70.9678930
   6.1731310  35.2427530  72.1185200   9.9784980  41.0072620  75.5058070
   9.6028580  40.2400550  75.0739360   9.2488100  41.3895320  75.9933000
   9.2535940  39.2330110  78.8065310   9.7773420  38.7392760  78.1755480
   9.8395360  39.3680470  79.5512880   8.7435910  38.4903460  74.7457720
   9.2395030  38.2574330  75.5306600   8.5451980  37.6515300  74.3295360
  10.1723070  37.1264410  77.2795400  10.0622350  36.9720450  78.2177670
  10.9330660  36.5985350  77.0370810  11.0613340  34.9572330  70.5201540
  11.9862650  34.8253510  70.3119830  11.0389130  35.0365150  71.4737990
  11.1351830  35.7282990  73.1458250  10.3403330  35.6628110  73.6751160
  11.3395110  36.6633630  73.1343600   8.0770250  49.7674540  77.1396640
   8.6729320  49.4459110  76.4631060   8.3348400  49.2946360  77.9309910
   8.6282460  50.4169840  80.9694370   8.1685430  51.1685650  80.5952390
   7.9994920  49.6976310  80.9109170   1.7973680  49.6166570  80.9711480
   2.0851490  49.3620870  80.0944490   2.3096900  49.0643930  81.5617050
   3.0150690  33.3556770  81.5507990   2.2322480  33.8302270  81.8304750
   2.7213620  32.4511600  81.4421170   7.5671760  34.0579870  79.5957080
   8.0079850  34.0024970  78.7478680   7.2979350  34.9737880  79.6667260
   9.4310330  33.6895110  77.6065900   9.3698730  32.7456330  77.4596920
  10.2102360  33.7975200  78.1519360   5.4029890  32.4385970  78.3007090
   6.0059260  33.0106180  78.7755610   4.6622880  33.0025410  78.0780990
   8.5464490  32.8407530  73.5747370   8.7415120  33.7390980  73.8414800
   7.7594360  32.6094610  74.0680320  10.0991100  50.0808240  75.3353930
  10.2743290  49.3945980  74.6914850   9.4012670  50.6055290  74.9430600
   4.5583260  40.6373470  59.0436770   4.4777310  39.7228080  58.7728480
   4.1447680  41.1340540  58.3376480   2.6901300  42.4152490  60.9246040
   1.9143400  41.9352930  61.2144610   3.3414230  41.7358140  60.7502200
   6.7108730  46.8212680  59.7045170   6.2490260  46.0499920  60.0332340
   7.5234280  46.8478750  60.2097620   2.9372040  49.1070690  59.3249160
   2.3183480  49.5628190  58.7543600   3.7923820  49.2622150  58.9238860
   2.1310290  45.0909680  60.9316200   2.0618570  44.1499620  60.7705330
   2.8930150  45.1811090  61.5038770   3.1615460  37.8980060  61.1585130
   3.5380280  37.0251940  61.0458800   3.0634970  38.2338760  60.2675570
   6.9439580  35.3930500  58.0913470   7.7649200  34.9027070  58.1338950
   6.9773660  35.9828160  58.8445310  11.2339130  37.4097250  64.6557100
  10.5291300  37.7978960  64.1372210  11.4997050  38.1047540  65.2578030
   3.8035390  43.9909930  56.7181070   3.1852660  44.4559380  56.1543790
   4.3158640  44.6837410  57.1350580   7.1801060  37.3330880  60.8641010
   6.4756630  37.6215770  61.4444120   7.5413220  38.1430990  60.5040570
   8.7963840  46.9506010  63.1268490   8.1127360  47.6205120  63.1185160
   9.3358130  47.1486660  62.3613350  10.2487980  36.7785670  61.2550220
   9.3012890  36.8124650  61.3865650  10.5737970  37.5924620  61.6399580
   6.3322580  48.7950140  61.8413670   6.3449740  48.3912430  60.9735930
   5.7797800  49.5697430  61.7375100   7.6268000  45.5166360  56.9303840
   7.5164330  44.5740690  57.0553260   7.6236250  45.8782000  57.8166600
   5.7308020  43.6979980  63.1696280   6.1476810  43.4840090  62.3349740
   6.4547840  43.9552770  63.7404900   3.1688280  41.1431680  56.2866330
   2.2417560  41.0769060  56.5154800   3.3213100  42.0811810  56.1721570
   3.1557360  37.4148680  53.2833490   2.2161030  37.5762640  53.3685950
   3.4740620  38.1334360  52.7369480   9.6770120  42.0967200  63.2612520
   8.8488750  42.1660290  62.7862650  10.2720600  42.6821510  62.7928350
   7.1985570  42.7051980  56.7901580   6.5797990  42.3671530  56.1427880
   7.1810020  42.0611740  57.4980770   6.6412130  38.8836520  64.2067390
   6.2283310  39.7090230  64.4607380   5.9088080  38.2981560  64.0143750
   7.3312230  48.9295850  64.8948370   6.8542790  49.7368040  64.7020980
   6.6474020  48.2774180  65.0474580   5.3750270  41.9438790  53.7974330
   5.8143550  41.1061220  53.6512150   6.0878690  42.5768190  53.8838470
   3.4845650  46.8834860  57.7655570   3.9241560  47.6259190  57.3510960
   3.4232540  47.1261430  58.6894530   8.9567410  33.1981600  52.1115370
   8.6440070  33.2908430  53.0114440   9.7179880  33.7762630  52.0612800
  10.9111440  48.6907790  69.9639760  11.3871160  49.1690680  70.6428840
  11.5318600  48.6225280  69.2385260  10.3144690  45.8820640  67.1239770
  10.4407750  45.6432520  66.2056950  10.3566070  45.0505180  67.5961850
   4.1761430  49.5848640  65.6934580   4.6906100  49.4956650  66.4957010
   3.3330510  49.9308340  65.9862490   6.1515830  49.8703980  55.1218580
   5.9916970  49.5806920  56.0200410   5.9862540  49.0944110  54.5863810
   5.8541960  47.3791540  53.6816580   5.1607120  47.3768830  53.0218860
   6.5964820  46.9550860  53.2510750   5.4191890  49.0054250  57.7565070
   5.8748840  48.2243630  58.0703690   5.7584410  49.7161070  58.3006250
  10.1668700  37.9353100  68.0889510   9.5512970  38.4432770  67.5604970
   9.8465120  37.0351430  68.0315450   2.2283020  36.7744990  65.5551700
   1.7662390  36.9828010  66.3671640   1.8261130  35.9604340  65.2522370
   7.2287530  37.9953940  66.6848360   6.3781120  37.6959690  67.0057430
   7.0689320  38.2395950  65.7732180   4.3237240  39.4955690  68.7847150
   4.6490650  38.6619440  68.4449380   5.1117570  40.0184210  68.9325480
   4.9625190  39.0373410  56.2788280   4.3634080  39.7609210  56.0951900
   5.5104800  38.9750190  55.4964730   3.5690060  37.6736950  58.3091560
   3.9619630  37.9909150  57.4960250   3.9306910  36.7948830  58.4236080
   4.1545200  40.2642700  62.4042340   3.4226320  40.7729510  62.7532440
   3.7569540  39.4472680  62.1031120   4.6171110  35.7176380  61.8165280
   4.6343850  36.1685030  62.6607130   4.3686690  34.8182020  62.0298720
   8.0441860  33.1308560  67.6551660   8.3687630  32.3998220  68.1809640
   8.0798370  32.8122200  66.7532650   7.9699700  43.2433670  61.2637690
   8.6898820  43.7388960  60.8733800   7.7681520  42.5651560  60.6191560
   3.4309640  34.6371630  55.4067080   2.6174250  34.1384800  55.3312390
   3.2371590  35.4769880  54.9903430   3.3518500  43.3142730  67.1506690
   3.2855810  42.3938400  66.8964280   2.7223640  43.4118170  67.8651330
   6.1458030  39.0091280  53.7029240   7.0337650  39.3208510  53.5280580
   6.1163120  38.1363530  53.3109820   3.2835230  46.1363300  66.9010490
   3.2979770  45.2044260  66.6829400   2.5760330  46.2223060  67.5400260
   8.4172300  40.3203120  53.1709100   8.3336020  40.7517340  52.3205540
   9.1366490  40.7801470  53.6035920   9.4946440  42.7770640  66.2479070
   8.7694630  43.3699420  66.0508460  10.0221900  42.7694180  65.4492440
   9.4459550  47.1745380  55.8991230   8.8035710  46.5201000  56.1734950
   9.0590210  47.5800470  55.1231900   5.0246030  44.5030810  59.7462920
   5.3769850  43.9058940  59.0864290   4.1408360  44.1775040  59.9171170
   2.7169130  47.7780870  63.9950990   3.3611350  47.9840250  64.6724410
   3.0798570  47.0169270  63.5421840   3.9901210  45.7813220  62.7128440
   4.6323440  45.0806380  62.8260610   4.5150560  46.5611660  62.5325330
   7.8356930  46.0661840  52.4367580   7.6094510  45.3492280  53.0292220
   7.4453130  45.8174280  51.5989330   5.7638830  46.5808120  65.9164500
   6.0995070  47.1674810  66.5942420   4.8439170  46.4500830  66.1462290
   7.4173180  43.9833780  54.0981740   7.1294880  44.4446470  54.8859620
   8.2125350  43.5231550  54.3665960   4.8081010  36.8625610  64.4489360
   5.1761830  36.0420820  64.7768930   3.9479210  36.9227500  64.8645010
   8.1743040  35.8182550  55.2576920   7.5456200  35.9228220  54.5435150
   7.6794960  36.0379330  56.0470800   2.6201180  47.5388140  52.6910900
   2.7213160  47.3352130  51.7612880   1.7202920  47.2846420  52.8958680
   1.7683000  39.5165200  64.6727330   2.2668250  39.9911020  65.3379180
   1.9105950  38.5928720  64.8797360   4.1742500  34.8219160  58.1130590
   4.0510280  34.8405290  57.1640100   5.1227060  34.8698100  58.2328990
   8.9749860  35.7333160  65.5155720   8.4723460  36.4738560  65.8549530
   9.7906520  36.1217160  65.1992510   7.2671870  40.9766340  58.9617080
   6.3262010  40.9916570  59.1364770   7.5815940  40.1902300  59.4077380
   9.2697450  48.1475190  60.6371340   9.3944870  48.9706360  61.1095150
  10.1363010  47.9365920  60.2895490   4.5837890  45.5332340  69.4449460
   3.9776050  45.5563940  68.7045210   4.2792000  44.8015380  69.9816710
   6.0138260  49.2612630  68.0558870   6.9660010  49.1770650  68.0059110
   5.8666480  49.9254340  68.7292660   8.9047460  48.6406840  53.5550780
   8.6188970  48.2271980  52.7404960   8.7067010  49.5694550  53.4351300
   3.6097420  43.6960150  52.5998380   3.0607520  44.1429450  53.2441120
   4.2316680  43.1909400  53.1236050   7.6632360  45.0502250  68.5320640
   8.4041830  45.3878010  68.0288100   6.9005040  45.2194310  67.9790410
   1.7900180  41.6788680  51.7440780   2.3105840  40.9637700  51.3781930
   2.4368580  42.3174550  52.0441290   6.3378020  43.1017080  67.0675850
   6.7519040  43.2562160  67.9166270   5.4029020  43.2272300  67.2301630
   6.8100190  40.4413240  69.0715000   7.3920960  39.6865560  68.9835480
   6.9861960  40.9720680  68.2946480   3.4357150  40.7853740  66.4209620
   3.5553360  40.1894880  67.1604460   4.2951150  40.8223430  66.0010920
   5.7745050  41.3390930  64.9972130   5.2480270  41.8633550  64.3937270
   6.1176390  41.9718320  65.6281860   5.0219350  36.9440900  67.9118460
   4.3334870  36.2822440  67.8468450   5.7425370  36.4979170  68.3566920
   5.6519750  33.5392530  53.9708720   5.9322040  32.6960430  54.3268140
   4.8785480  33.7715640  54.4847470   2.3548210  49.7600290  54.0342520
   3.2499000  50.0985260  54.0561280   2.3865840  49.0379700  53.4066800
   9.3342560  48.2903960  66.7408720   8.7344550  48.3496520  65.9972640
   9.4636460  47.3508940  66.8705570  10.5744010  46.0321780  52.0778430
   9.7436970  46.0998430  52.5485660  10.7515840  46.9225900  51.7745290
  10.0300470  42.7769260  54.5812630  10.7919380  43.3465910  54.6872320
  10.0454840  42.2096460  55.3520940  11.0360440  43.6319360  59.4254560
  11.4069270  42.8486680  59.0190530  11.6762370  44.3208460  59.2471860
   8.0194200  45.0155940  64.8384880   7.2054040  45.4453100  65.1010670
   8.4268400  45.6274350  64.2253930  10.0819640  43.0703630  51.7385150
  10.3568480  43.9782510  51.6104370   9.8930380  43.0066160  52.6747140
   6.4795250  36.0948480  53.0338780   6.8980130  35.9079460  52.1935440
   6.1731310  35.2427530  53.3441710   9.9784980  41.0072620  56.7314580
   9.6028580  40.2400550  56.2995870   9.2488100  41.3895320  57.2189510
   9.3684600  40.1544140  66.3654100   9.1370690  39.9256890  65.4652050
   9.6289150  41.0743690  66.3198990   7.8072670  35.3800570  69.1433800
   8.6842850  35.3883970  69.5267800   7.8193510  34.6431410  68.5326150
   9.2535940  39.2330110  60.0321820   9.7773420  38.7392760  59.4011990
   9.8395360  39.3680470  60.7769390   9.4325660  39.3169980  63.5541370
   8.4828370  39.2833520  63.6686360   9.6138670  40.2270090  63.3191140
   8.7435910  38.4903460  55.9714230   9.2395030  38.2574330  56.7563110
   8.5451980  37.6515300  55.5551870  10.1723070  37.1264410  58.5051910
  10.0622350  36.9720450  59.4434180  10.9330660  36.5985350  58.2627320
   8.5188790  33.0658540  64.9634910   9.1561010  33.6792680  65.3294100
   8.6663680  33.1019200  64.0184140  11.0613340  34.9572330  51.7458050
  11.9862650  34.8253510  51.5376340  11.0389130  35.0365150  52.6994500
  11.1351830  35.7282990  54.3714760  10.3403330  35.6628110  54.9007670
  11.3395110  36.6633630  54.3600110   8.0770250  49.7674540  58.3653150
   8.6729320  49.4459110  57.6887570   8.3348400  49.2946360  59.1566420
   1.8893270  34.2184730  67.8710010   1.8282160  34.8106560  68.6205420
   2.8293650  34.1110690  67.7260270   4.5267830  33.8754790  67.5102300
   5.1408240  34.1934080  66.8483380   5.0717390  33.3903380  68.1298160
  10.9443010  49.7746420  64.9164140  10.4501290  50.1715290  64.1991270
  10.3356300  49.1495630  65.3101420   5.2675870  32.4386930  63.8371590
   4.3935710  32.7722040  63.6344520   5.1586620  31.9660110  64.6623460
   6.1747850  34.6457800  65.2213310   5.8461210  33.8309560  64.8415040
   7.1230150  34.6027610  65.0979000   8.6282460  50.4169840  62.1950880
   8.1685430  51.1685650  61.8208900   7.9994920  49.6976310  62.1365680
   1.7973680  49.6166570  62.1967990   2.0851490  49.3620870  61.3201000
   2.3096900  49.0643930  62.7873560   3.0150690  33.3556770  62.7764500
   2.2322480  33.8302270  63.0561260   2.7213620  32.4511600  62.6677680
   7.5671760  34.0579870  60.8213590   8.0079850  34.0024970  59.9735190
   7.2979350  34.9737880  60.8923770   9.4310330  33.6895110  58.8322410
   9.3698730  32.7456330  58.6853430  10.2102360  33.7975200  59.3775870
   5.4029890  32.4385970  59.5263600   6.0059260  33.0106180  60.0012120
   4.6622880  33.0025410  59.3037500   8.5464490  32.8407530  54.8003880
   8.7415120  33.7390980  55.0671310   7.7594360  32.6094610  55.2936830
   1.8646040  50.5382670  69.5636190   2.7913350  50.3026940  69.6072150
   1.8496470  51.3654670  69.0822220  10.0991100  50.0808240  56.5610440
  10.2743290  49.3945980  55.9171360   9.4012670  50.6055290  56.1687110
   5.6525110  32.6181000  69.9058540   5.5390560  32.9375610  70.8010060
   6.4694850  33.0193510  69.6095820   8.4323600  49.7652530  69.3877230
   9.2248920  49.2701760  69.1803190   8.7256750  50.4442670  69.9952840
   4.5583260  40.6373470  40.2693280   4.4777310  39.7228080  39.9984990
   4.1447680  41.1340540  39.5632990   2.6901300  42.4152490  42.1502550
   1.9143400  41.9352930  42.4401120   3.3414230  41.7358140  41.9758710
   6.7108730  46.8212680  40.9301680   6.2490260  46.0499920  41.2588850
   7.5234280  46.8478750  41.4354130   2.9372040  49.1070690  40.5505670
   2.3183480  49.5628190  39.9800110   3.7923820  49.2622150  40.1495370
   2.1310290  45.0909680  42.1572710   2.0618570  44.1499620  41.9961840
   2.8930150  45.1811090  42.7295280   3.1615460  37.8980060  42.3841640
   3.5380280  37.0251940  42.2715310   3.0634970  38.2338760  41.4932080
   6.9439580  35.3930500  39.3169980   7.7649200  34.9027070  39.3595460
   6.9773660  35.9828160  40.0701820  11.2339130  37.4097250  45.8813610
  10.5291300  37.7978960  45.3628720  11.4997050  38.1047540  46.4834540
   3.8035390  43.9909930  37.9437580   3.1852660  44.4559380  37.3800300
   4.3158640  44.6837410  38.3607090   7.1801060  37.3330880  42.0897520
   6.4756630  37.6215770  42.6700630   7.5413220  38.1430990  41.7297080
   8.7963840  46.9506010  44.3525000   8.1127360  47.6205120  44.3441670
   9.3358130  47.1486660  43.5869860  10.2487980  36.7785670  42.4806730
   9.3012890  36.8124650  42.6122160  10.5737970  37.5924620  42.8656090
   6.3322580  48.7950140  43.0670180   6.3449740  48.3912430  42.1992440
   5.7797800  49.5697430  42.9631610   7.6268000  45.5166360  38.1560350
   7.5164330  44.5740690  38.2809770   7.6236250  45.8782000  39.0423110
   5.7308020  43.6979980  44.3952790   6.1476810  43.4840090  43.5606250
   6.4547840  43.9552770  44.9661410   3.1688280  41.1431680  37.5122840
   2.2417560  41.0769060  37.7411310   3.3213100  42.0811810  37.3978080
   3.1557360  37.4148680  34.5090000   2.2161030  37.5762640  34.5942460
   3.4740620  38.1334360  33.9625990   9.6770120  42.0967200  44.4869030
   8.8488750  42.1660290  44.0119160  10.2720600  42.6821510  44.0184860
   7.1985570  42.7051980  38.0158090   6.5797990  42.3671530  37.3684390
   7.1810020  42.0611740  38.7237280   6.6412130  38.8836520  45.4323900
   6.2283310  39.7090230  45.6863890   5.9088080  38.2981560  45.2400260
   7.3312230  48.9295850  46.1204880   6.8542790  49.7368040  45.9277490
   6.6474020  48.2774180  46.2731090   5.3750270  41.9438790  35.0230840
   5.8143550  41.1061220  34.8768660   6.0878690  42.5768190  35.1094980
   3.4845650  46.8834860  38.9912080   3.9241560  47.6259190  38.5767470
   3.4232540  47.1261430  39.9151040   8.9567410  33.1981600  33.3371880
   8.6440070  33.2908430  34.2370950   9.7179880  33.7762630  33.2869310
  10.9111440  48.6907790  51.1896270  11.3871160  49.1690680  51.8685350
  11.5318600  48.6225280  50.4641770  10.3144690  45.8820640  48.3496280
  10.4407750  45.6432520  47.4313460  10.3566070  45.0505180  48.8218360
   4.1761430  49.5848640  46.9191090   4.6906100  49.4956650  47.7213520
   3.3330510  49.9308340  47.2119000   6.1515830  49.8703980  36.3475090
   5.9916970  49.5806920  37.2456920   5.9862540  49.0944110  35.8120320
   5.8541960  47.3791540  34.9073090   5.1607120  47.3768830  34.2475370
   6.5964820  46.9550860  34.4767260   5.4191890  49.0054250  38.9821580
   5.8748840  48.2243630  39.2960200   5.7584410  49.7161070  39.5262760
  10.1668700  37.9353100  49.3146020   9.5512970  38.4432770  48.7861480
   9.8465120  37.0351430  49.2571960   2.2283020  36.7744990  46.7808210
   1.7662390  36.9828010  47.5928150   1.8261130  35.9604340  46.4778880
   7.2287530  37.9953940  47.9104870   6.3781120  37.6959690  48.2313940
   7.0689320  38.2395950  46.9988690   4.3237240  39.4955690  50.0103660
   4.6490650  38.6619440  49.6705890   5.1117570  40.0184210  50.1581990
   4.9625190  39.0373410  37.5044790   4.3634080  39.7609210  37.3208410
   5.5104800  38.9750190  36.7221240   3.5690060  37.6736950  39.5348070
   3.9619630  37.9909150  38.7216760   3.9306910  36.7948830  39.6492590
   4.1545200  40.2642700  43.6298850   3.4226320  40.7729510  43.9788950
   3.7569540  39.4472680  43.3287630   4.6171110  35.7176380  43.0421790
   4.6343850  36.1685030  43.8863640   4.3686690  34.8182020  43.2555230
   8.0441860  33.1308560  48.8808170   8.3687630  32.3998220  49.4066150
   8.0798370  32.8122200  47.9789160   7.9699700  43.2433670  42.4894200
   8.6898820  43.7388960  42.0990310   7.7681520  42.5651560  41.8448070
   3.4309640  34.6371630  36.6323590   2.6174250  34.1384800  36.5568900
   3.2371590  35.4769880  36.2159940   3.3518500  43.3142730  48.3763200
   3.2855810  42.3938400  48.1220790   2.7223640  43.4118170  49.0907840
   6.1458030  39.0091280  34.9285750   7.0337650  39.3208510  34.7537090
   6.1163120  38.1363530  34.5366330   3.2835230  46.1363300  48.1267000
   3.2979770  45.2044260  47.9085910   2.5760330  46.2223060  48.7656770
   8.4172300  40.3203120  34.3965610   8.3336020  40.7517340  33.5462050
   9.1366490  40.7801470  34.8292430   9.4946440  42.7770640  47.4735580
   8.7694630  43.3699420  47.2764970  10.0221900  42.7694180  46.6748950
   9.4459550  47.1745380  37.1247740   8.8035710  46.5201000  37.3991460
   9.0590210  47.5800470  36.3488410   5.0246030  44.5030810  40.9719430
   5.3769850  43.9058940  40.3120800   4.1408360  44.1775040  41.1427680
   2.7169130  47.7780870  45.2207500   3.3611350  47.9840250  45.8980920
   3.0798570  47.0169270  44.7678350   3.9901210  45.7813220  43.9384950
   4.6323440  45.0806380  44.0517120   4.5150560  46.5611660  43.7581840
   7.8356930  46.0661840  33.6624090   7.6094510  45.3492280  34.2548730
   7.4453130  45.8174280  32.8245840   5.7638830  46.5808120  47.1421010
   6.0995070  47.1674810  47.8198930   4.8439170  46.4500830  47.3718800
   7.4173180  43.9833780  35.3238250   7.1294880  44.4446470  36.1116130
   8.2125350  43.5231550  35.5922470   4.8081010  36.8625610  45.6745870
   5.1761830  36.0420820  46.0025440   3.9479210  36.9227500  46.0901520
   8.1743040  35.8182550  36.4833430   7.5456200  35.9228220  35.7691660
   7.6794960  36.0379330  37.2727310   2.6201180  47.5388140  33.9167410
   2.7213160  47.3352130  32.9869390   1.7202920  47.2846420  34.1215190
   1.7683000  39.5165200  45.8983840   2.2668250  39.9911020  46.5635690
   1.9105950  38.5928720  46.1053870   4.1742500  34.8219160  39.3387100
   4.0510280  34.8405290  38.3896610   5.1227060  34.8698100  39.4585500
   8.9749860  35.7333160  46.7412230   8.4723460  36.4738560  47.0806040
   9.7906520  36.1217160  46.4249020   7.2671870  40.9766340  40.1873590
   6.3262010  40.9916570  40.3621280   7.5815940  40.1902300  40.6333890
   9.2697450  48.1475190  41.8627850   9.3944870  48.9706360  42.3351660
  10.1363010  47.9365920  41.5152000   4.5837890  45.5332340  50.6705970
   3.9776050  45.5563940  49.9301720   4.2792000  44.8015380  51.2073220
   6.0138260  49.2612630  49.2815380   6.9660010  49.1770650  49.2315620
   5.8666480  49.9254340  49.9549170   8.9047460  48.6406840  34.7807290
   8.6188970  48.2271980  33.9661470   8.7067010  49.5694550  34.6607810
   3.6097420  43.6960150  33.8254890   3.0607520  44.1429450  34.4697630
   4.2316680  43.1909400  34.3492560   7.6632360  45.0502250  49.7577150
   8.4041830  45.3878010  49.2544610   6.9005040  45.2194310  49.2046920
   1.7900180  41.6788680  32.9697290   2.3105840  40.9637700  32.6038440
   2.4368580  42.3174550  33.2697800   6.3378020  43.1017080  48.2932360
   6.7519040  43.2562160  49.1422780   5.4029020  43.2272300  48.4558140
   6.8100190  40.4413240  50.2971510   7.3920960  39.6865560  50.2091990
   6.9861960  40.9720680  49.5202990   3.4357150  40.7853740  47.6466130
   3.5553360  40.1894880  48.3860970   4.2951150  40.8223430  47.2267430
   5.7745050  41.3390930  46.2228640   5.2480270  41.8633550  45.6193780
   6.1176390  41.9718320  46.8538370   5.0219350  36.9440900  49.1374970
   4.3334870  36.2822440  49.0724960   5.7425370  36.4979170  49.5823430
   5.6519750  33.5392530  35.1965230   5.9322040  32.6960430  35.5524650
   4.8785480  33.7715640  35.7103980   2.3548210  49.7600290  35.2599030
   3.2499000  50.0985260  35.2817790   2.3865840  49.0379700  34.6323310
   9.3342560  48.2903960  47.9665230   8.7344550  48.3496520  47.2229150
   9.4636460  47.3508940  48.0962080  10.5744010  46.0321780  33.3034940
   9.7436970  46.0998430  33.7742170  10.7515840  46.9225900  33.0001800
  10.0300470  42.7769260  35.8069140  10.7919380  43.3465910  35.9128830
  10.0454840  42.2096460  36.5777450  11.0360440  43.6319360  40.6511070
  11.4069270  42.8486680  40.2447040  11.6762370  44.3208460  40.4728370
   8.0194200  45.0155940  46.0641390   7.2054040  45.4453100  46.3267180
   8.4268400  45.6274350  45.4510440  10.0819640  43.0703630  32.9641660
  10.3568480  43.9782510  32.8360880   9.8930380  43.0066160  33.9003650
   6.4795250  36.0948480  34.2595290   6.8980130  35.9079460  33.4191950
   6.1731310  35.2427530  34.5698220   9.9784980  41.0072620  37.9571090
   9.6028580  40.2400550  37.5252380   9.2488100  41.3895320  38.4446020
   9.3684600  40.1544140  47.5910610   9.1370690  39.9256890  46.6908560
   9.6289150  41.0743690  47.5455500   7.8072670  35.3800570  50.3690310
   8.6842850  35.3883970  50.7524310   7.8193510  34.6431410  49.7582660
   9.2535940  39.2330110  41.2578330   9.7773420  38.7392760  40.6268500
   9.8395360  39.3680470  42.0025900   9.4325660  39.3169980  44.7797880
   8.4828370  39.2833520  44.8942870   9.6138670  40.2270090  44.5447650
   8.7435910  38.4903460  37.1970740   9.2395030  38.2574330  37.9819620
   8.5451980  37.6515300  36.7808380  10.1723070  37.1264410  39.7308420
  10.0622350  36.9720450  40.6690690  10.9330660  36.5985350  39.4883830
   8.5188790  33.0658540  46.1891420   9.1561010  33.6792680  46.5550610
   8.6663680  33.1019200  45.2440650  11.0613340  34.9572330  32.9714560
  11.9862650  34.8253510  32.7632850  11.0389130  35.0365150  33.9251010
   8.0770250  49.7674540  39.5909660   8.6729320  49.4459110  38.9144080
   8.3348400  49.2946360  40.3822930   1.8893270  34.2184730  49.0966520
   1.8282160  34.8106560  49.8461930   2.8293650  34.1110690  48.9516780
   4.5267830  33.8754790  48.7358810   5.1408240  34.1934080  48.0739890
   5.0717390  33.3903380  49.3554670  10.9443010  49.7746420  46.1420650
  10.4501290  50.1715290  45.4247780  10.3356300  49.1495630  46.5357930
   5.2675870  32.4386930  45.0628100   4.3935710  32.7722040  44.8601030
   5.1586620  31.9660110  45.8879970   6.1747850  34.6457800  46.4469820
   5.8461210  33.8309560  46.0671550   7.1230150  34.6027610  46.3235510
   8.6282460  50.4169840  43.4207390   8.1685430  51.1685650  43.0465410
   7.9994920  49.6976310  43.3622190   1.7973680  49.6166570  43.4224500
   2.0851490  49.3620870  42.5457510   2.3096900  49.0643930  44.0130070
   3.0150690  33.3556770  44.0021010   2.2322480  33.8302270  44.2817770
   2.7213620  32.4511600  43.8934190   7.5671760  34.0579870  42.0470100
   8.0079850  34.0024970  41.1991700   7.2979350  34.9737880  42.1180280
   9.4310330  33.6895110  40.0578920   9.3698730  32.7456330  39.9109940
  10.2102360  33.7975200  40.6032380   5.4029890  32.4385970  40.7520110
   6.0059260  33.0106180  41.2268630   4.6622880  33.0025410  40.5294010
   8.5464490  32.8407530  36.0260390   8.7415120  33.7390980  36.2927820
   7.7594360  32.6094610  36.5193340   1.8646040  50.5382670  50.7892700
   2.7913350  50.3026940  50.8328660   1.8496470  51.3654670  50.3078730
  10.0991100  50.0808240  37.7866950  10.2743290  49.3945980  37.1427870
   9.4012670  50.6055290  37.3943620   5.6525110  32.6181000  51.1315050
   5.5390560  32.9375610  52.0266570   6.4694850  33.0193510  50.8352330
   8.4323600  49.7652530  50.6133740   9.2248920  49.2701760  50.4059700
   8.7256750  50.4442670  51.2209350   4.5583260  40.6373470  21.4949790
   4.4777310  39.7228080  21.2241500   4.1447680  41.1340540  20.7889500
   2.6901300  42.4152490  23.3759060   1.9143400  41.9352930  23.6657630
   3.3414230  41.7358140  23.2015220   6.7108730  46.8212680  22.1558190
   6.2490260  46.0499920  22.4845360   7.5234280  46.8478750  22.6610640
   2.9372040  49.1070690  21.7762180   2.3183480  49.5628190  21.2056620
   3.7923820  49.2622150  21.3751880   2.1310290  45.0909680  23.3829220
   2.0618570  44.1499620  23.2218350   2.8930150  45.1811090  23.9551790
   3.1615460  37.8980060  23.6098150   3.5380280  37.0251940  23.4971820
   3.0634970  38.2338760  22.7188590   6.9439580  35.3930500  20.5426490
   7.7649200  34.9027070  20.5851970   6.9773660  35.9828160  21.2958330
  11.2339130  37.4097250  27.1070120  10.5291300  37.7978960  26.5885230
  11.4997050  38.1047540  27.7091050   3.8035390  43.9909930  19.1694090
   3.1852660  44.4559380  18.6056810   4.3158640  44.6837410  19.5863600
   7.1801060  37.3330880  23.3154030   6.4756630  37.6215770  23.8957140
   7.5413220  38.1430990  22.9553590   8.7963840  46.9506010  25.5781510
   8.1127360  47.6205120  25.5698180   9.3358130  47.1486660  24.8126370
  10.2487980  36.7785670  23.7063240   9.3012890  36.8124650  23.8378670
  10.5737970  37.5924620  24.0912600   6.3322580  48.7950140  24.2926690
   6.3449740  48.3912430  23.4248950   5.7797800  49.5697430  24.1888120
   7.6268000  45.5166360  19.3816860   7.5164330  44.5740690  19.5066280
   7.6236250  45.8782000  20.2679620   5.7308020  43.6979980  25.6209300
   6.1476810  43.4840090  24.7862760   6.4547840  43.9552770  26.1917920
   3.1688280  41.1431680  18.7379350   2.2417560  41.0769060  18.9667820
   3.3213100  42.0811810  18.6234590   3.1557360  37.4148680  15.7346510
   2.2161030  37.5762640  15.8198970   3.4740620  38.1334360  15.1882500
   9.6770120  42.0967200  25.7125540   8.8488750  42.1660290  25.2375670
  10.2720600  42.6821510  25.2441370   7.1985570  42.7051980  19.2414600
   6.5797990  42.3671530  18.5940900   7.1810020  42.0611740  19.9493790
   6.6412130  38.8836520  26.6580410   6.2283310  39.7090230  26.9120400
   5.9088080  38.2981560  26.4656770   7.3312230  48.9295850  27.3461390
   6.8542790  49.7368040  27.1534000   6.6474020  48.2774180  27.4987600
   5.3750270  41.9438790  16.2487350   5.8143550  41.1061220  16.1025170
   6.0878690  42.5768190  16.3351490   3.4845650  46.8834860  20.2168590
   3.9241560  47.6259190  19.8023980   3.4232540  47.1261430  21.1407550
   8.9567410  33.1981600  14.5628390   8.6440070  33.2908430  15.4627460
   9.7179880  33.7762630  14.5125820  10.9111440  48.6907790  32.4152780
  11.3871160  49.1690680  33.0941860  11.5318600  48.6225280  31.6898280
  10.3144690  45.8820640  29.5752790  10.4407750  45.6432520  28.6569970
  10.3566070  45.0505180  30.0474870   4.1761430  49.5848640  28.1447600
   4.6906100  49.4956650  28.9470030   3.3330510  49.9308340  28.4375510
   6.1515830  49.8703980  17.5731600   5.9916970  49.5806920  18.4713430
   5.9862540  49.0944110  17.0376830   5.8541960  47.3791540  16.1329600
   5.1607120  47.3768830  15.4731880   6.5964820  46.9550860  15.7023770
   5.4191890  49.0054250  20.2078090   5.8748840  48.2243630  20.5216710
   5.7584410  49.7161070  20.7519270  10.1668700  37.9353100  30.5402530
   9.5512970  38.4432770  30.0117990   9.8465120  37.0351430  30.4828470
   2.2283020  36.7744990  28.0064720   1.7662390  36.9828010  28.8184660
   1.8261130  35.9604340  27.7035390   7.2287530  37.9953940  29.1361380
   6.3781120  37.6959690  29.4570450   7.0689320  38.2395950  28.2245200
   4.3237240  39.4955690  31.2360170   4.6490650  38.6619440  30.8962400
   5.1117570  40.0184210  31.3838500   4.9625190  39.0373410  18.7301300
   4.3634080  39.7609210  18.5464920   5.5104800  38.9750190  17.9477750
   3.5690060  37.6736950  20.7604580   3.9619630  37.9909150  19.9473270
   3.9306910  36.7948830  20.8749100   4.1545200  40.2642700  24.8555360
   3.4226320  40.7729510  25.2045460   3.7569540  39.4472680  24.5544140
   4.6171110  35.7176380  24.2678300   4.6343850  36.1685030  25.1120150
   4.3686690  34.8182020  24.4811740   8.0441860  33.1308560  30.1064680
   8.3687630  32.3998220  30.6322660   8.0798370  32.8122200  29.2045670
   7.9699700  43.2433670  23.7150710   8.6898820  43.7388960  23.3246820
   7.7681520  42.5651560  23.0704580   3.4309640  34.6371630  17.8580100
   2.6174250  34.1384800  17.7825410   3.2371590  35.4769880  17.4416450
   3.3518500  43.3142730  29.6019710   3.2855810  42.3938400  29.3477300
   2.7223640  43.4118170  30.3164350   6.1458030  39.0091280  16.1542260
   7.0337650  39.3208510  15.9793600   6.1163120  38.1363530  15.7622840
   3.2835230  46.1363300  29.3523510   3.2979770  45.2044260  29.1342420
   2.5760330  46.2223060  29.9913280   8.4172300  40.3203120  15.6222120
   8.3336020  40.7517340  14.7718560   9.1366490  40.7801470  16.0548940
   9.4946440  42.7770640  28.6992090   8.7694630  43.3699420  28.5021480
  10.0221900  42.7694180  27.9005460   9.4459550  47.1745380  18.3504250
   8.8035710  46.5201000  18.6247970   9.0590210  47.5800470  17.5744920
   5.0246030  44.5030810  22.1975940   5.3769850  43.9058940  21.5377310
   4.1408360  44.1775040  22.3684190   2.7169130  47.7780870  26.4464010
   3.3611350  47.9840250  27.1237430   3.0798570  47.0169270  25.9934860
   3.9901210  45.7813220  25.1641460   4.6323440  45.0806380  25.2773630
   4.5150560  46.5611660  24.9838350   7.8356930  46.0661840  14.8880600
   7.6094510  45.3492280  15.4805240   7.4453130  45.8174280  14.0502350
   5.7638830  46.5808120  28.3677520   6.0995070  47.1674810  29.0455440
   4.8439170  46.4500830  28.5975310   7.4173180  43.9833780  16.5494760
   7.1294880  44.4446470  17.3372640   8.2125350  43.5231550  16.8178980
   4.8081010  36.8625610  26.9002380   5.1761830  36.0420820  27.2281950
   3.9479210  36.9227500  27.3158030   8.1743040  35.8182550  17.7089940
   7.5456200  35.9228220  16.9948170   7.6794960  36.0379330  18.4983820
   2.6201180  47.5388140  15.1423920   2.7213160  47.3352130  14.2125900
   1.7202920  47.2846420  15.3471700   1.7683000  39.5165200  27.1240350
   2.2668250  39.9911020  27.7892200   1.9105950  38.5928720  27.3310380
   4.1742500  34.8219160  20.5643610   4.0510280  34.8405290  19.6153120
   5.1227060  34.8698100  20.6842010   8.9749860  35.7333160  27.9668740
   8.4723460  36.4738560  28.3062550   9.7906520  36.1217160  27.6505530
   7.2671870  40.9766340  21.4130100   6.3262010  40.9916570  21.5877790
   7.5815940  40.1902300  21.8590400   9.2697450  48.1475190  23.0884360
   9.3944870  48.9706360  23.5608170  10.1363010  47.9365920  22.7408510
   4.5837890  45.5332340  31.8962480   3.9776050  45.5563940  31.1558230
   4.2792000  44.8015380  32.4329730   6.0138260  49.2612630  30.5071890
   6.9660010  49.1770650  30.4572130   5.8666480  49.9254340  31.1805680
   8.9047460  48.6406840  16.0063800   8.6188970  48.2271980  15.1917980
   8.7067010  49.5694550  15.8864320   3.6097420  43.6960150  15.0511400
   3.0607520  44.1429450  15.6954140   4.2316680  43.1909400  15.5749070
   7.6632360  45.0502250  30.9833660   8.4041830  45.3878010  30.4801120
   6.9005040  45.2194310  30.4303430   1.7900180  41.6788680  14.1953800
   2.3105840  40.9637700  13.8294950   2.4368580  42.3174550  14.4954310
   6.3378020  43.1017080  29.5188870   6.7519040  43.2562160  30.3679290
   5.4029020  43.2272300  29.6814650   6.8100190  40.4413240  31.5228020
   7.3920960  39.6865560  31.4348500   6.9861960  40.9720680  30.7459500
   3.4357150  40.7853740  28.8722640   3.5553360  40.1894880  29.6117480
   4.2951150  40.8223430  28.4523940   5.7745050  41.3390930  27.4485150
   5.2480270  41.8633550  26.8450290   6.1176390  41.9718320  28.0794880
   5.0219350  36.9440900  30.3631480   4.3334870  36.2822440  30.2981470
   5.7425370  36.4979170  30.8079940   5.6519750  33.5392530  16.4221740
   5.9322040  32.6960430  16.7781160   4.8785480  33.7715640  16.9360490
   2.3548210  49.7600290  16.4855540   3.2499000  50.0985260  16.5074300
   2.3865840  49.0379700  15.8579820   9.3342560  48.2903960  29.1921740
   8.7344550  48.3496520  28.4485660   9.4636460  47.3508940  29.3218590
  10.5744010  46.0321780  14.5291450   9.7436970  46.0998430  14.9998680
  10.7515840  46.9225900  14.2258310  10.0300470  42.7769260  17.0325650
  10.7919380  43.3465910  17.1385340  10.0454840  42.2096460  17.8033960
  11.0360440  43.6319360  21.8767580  11.4069270  42.8486680  21.4703550
  11.6762370  44.3208460  21.6984880   8.0194200  45.0155940  27.2897900
   7.2054040  45.4453100  27.5523690   8.4268400  45.6274350  26.6766950
  10.0819640  43.0703630  14.1898170  10.3568480  43.9782510  14.0617390
   9.8930380  43.0066160  15.1260160   6.4795250  36.0948480  15.4851800
   6.8980130  35.9079460  14.6448460   6.1731310  35.2427530  15.7954730
   9.9784980  41.0072620  19.1827600   9.6028580  40.2400550  18.7508890
   9.2488100  41.3895320  19.6702530   9.3684600  40.1544140  28.8167120
   9.1370690  39.9256890  27.9165070   9.6289150  41.0743690  28.7712010
   7.8072670  35.3800570  31.5946820   8.6842850  35.3883970  31.9780820
   7.8193510  34.6431410  30.9839170   9.2535940  39.2330110  22.4834840
   9.7773420  38.7392760  21.8525010   9.8395360  39.3680470  23.2282410
   9.4325660  39.3169980  26.0054390   8.4828370  39.2833520  26.1199380
   9.6138670  40.2270090  25.7704160   8.7435910  38.4903460  18.4227250
   9.2395030  38.2574330  19.2076130   8.5451980  37.6515300  18.0064890
  10.1723070  37.1264410  20.9564930  10.0622350  36.9720450  21.8947200
  10.9330660  36.5985350  20.7140340   8.5188790  33.0658540  27.4147930
   9.1561010  33.6792680  27.7807120   8.6663680  33.1019200  26.4697160
  11.0613340  34.9572330  14.1971070  11.9862650  34.8253510  13.9889360
  11.0389130  35.0365150  15.1507520  11.1351830  35.7282990  16.8227780
  10.3403330  35.6628110  17.3520690  11.3395110  36.6633630  16.8113130
   8.0770250  49.7674540  20.8166170   8.6729320  49.4459110  20.1400590
   8.3348400  49.2946360  21.6079440   1.8893270  34.2184730  30.3223030
   1.8282160  34.8106560  31.0718440   2.8293650  34.1110690  30.1773290
   4.5267830  33.8754790  29.9615320   5.1408240  34.1934080  29.2996400
   5.0717390  33.3903380  30.5811180  10.9443010  49.7746420  27.3677160
  10.4501290  50.1715290  26.6504290  10.3356300  49.1495630  27.7614440
   5.2675870  32.4386930  26.2884610   4.3935710  32.7722040  26.0857540
   5.1586620  31.9660110  27.1136480   6.1747850  34.6457800  27.6726330
   5.8461210  33.8309560  27.2928060   7.1230150  34.6027610  27.5492020
   8.6282460  50.4169840  24.6463900   8.1685430  51.1685650  24.2721920
   7.9994920  49.6976310  24.5878700   1.7973680  49.6166570  24.6481010
   2.0851490  49.3620870  23.7714020   2.3096900  49.0643930  25.2386580
   3.0150690  33.3556770  25.2277520   2.2322480  33.8302270  25.5074280
   2.7213620  32.4511600  25.1190700   7.5671760  34.0579870  23.2726610
   8.0079850  34.0024970  22.4248210   7.2979350  34.9737880  23.3436790
   9.4310330  33.6895110  21.2835430   9.3698730  32.7456330  21.1366450
  10.2102360  33.7975200  21.8288890   5.4029890  32.4385970  21.9776620
   6.0059260  33.0106180  22.4525140   4.6622880  33.0025410  21.7550520
   8.5464490  32.8407530  17.2516900   8.7415120  33.7390980  17.5184330
   7.7594360  32.6094610  17.7449850   1.8646040  50.5382670  32.0149210
   2.7913350  50.3026940  32.0585170   1.8496470  51.3654670  31.5335240
  10.0991100  50.0808240  19.0123460  10.2743290  49.3945980  18.3684380
   9.4012670  50.6055290  18.6200130   5.6525110  32.6181000  32.3571560
   5.5390560  32.9375610  33.2523080   6.4694850  33.0193510  32.0608840
   8.4323600  49.7652530  31.8390250   9.2248920  49.2701760  31.6316210
   8.7256750  50.4442670  32.4465860   4.5583260  40.6373470   2.7206300
   4.4777310  39.7228080   2.4498010   4.1447680  41.1340540   2.0146010
   2.6901300  42.4152490   4.6015570   1.9143400  41.9352930   4.8914140
   3.3414230  41.7358140   4.4271730   6.7108730  46.8212680   3.3814700
   6.2490260  46.0499920   3.7101870   7.5234280  46.8478750   3.8867150
   2.9372040  49.1070690   3.0018690   2.3183480  49.5628190   2.4313130
   3.7923820  49.2622150   2.6008390   2.1310290  45.0909680   4.6085730
   2.0618570  44.1499620   4.4474860   2.8930150  45.1811090   5.1808300
   3.1615460  37.8980060   4.8354660   3.5380280  37.0251940   4.7228330
   3.0634970  38.2338760   3.9445100   6.9439580  35.3930500   1.7683000
   7.7649200  34.9027070   1.8108480   6.9773660  35.9828160   2.5214840
  11.2339130  37.4097250   8.3326630  10.5291300  37.7978960   7.8141740
  11.4997050  38.1047540   8.9347560   7.1801060  37.3330880   4.5410540
   6.4756630  37.6215770   5.1213650   7.5413220  38.1430990   4.1810100
   8.7963840  46.9506010   6.8038020   8.1127360  47.6205120   6.7954690
   9.3358130  47.1486660   6.0382880  10.2487980  36.7785670   4.9319750
   9.3012890  36.8124650   5.0635180  10.5737970  37.5924620   5.3169110
   6.3322580  48.7950140   5.5183200   6.3449740  48.3912430   4.6505460
   5.7797800  49.5697430   5.4144630   5.7308020  43.6979980   6.8465810
   6.1476810  43.4840090   6.0119270   6.4547840  43.9552770   7.4174430
   9.6770120  42.0967200   6.9382050   8.8488750  42.1660290   6.4632180
  10.2720600  42.6821510   6.4697880   6.6412130  38.8836520   7.8836920
   6.2283310  39.7090230   8.1376910   5.9088080  38.2981560   7.6913280
   7.3312230  48.9295850   8.5717900   6.8542790  49.7368040   8.3790510
   6.6474020  48.2774180   8.7244110  10.9111440  48.6907790  13.6409290
  11.3871160  49.1690680  14.3198370  11.5318600  48.6225280  12.9154790
  10.3144690  45.8820640  10.8009300  10.4407750  45.6432520   9.8826480
  10.3566070  45.0505180  11.2731380   4.1761430  49.5848640   9.3704110
   4.6906100  49.4956650  10.1726540   3.3330510  49.9308340   9.6632020
  10.1668700  37.9353100  11.7659040   9.5512970  38.4432770  11.2374500
   9.8465120  37.0351430  11.7084980   2.2283020  36.7744990   9.2321230
   1.7662390  36.9828010  10.0441170   1.8261130  35.9604340   8.9291900
   7.2287530  37.9953940  10.3617890   6.3781120  37.6959690  10.6826960
   7.0689320  38.2395950   9.4501710   4.3237240  39.4955690  12.4616680
   4.6490650  38.6619440  12.1218910   5.1117570  40.0184210  12.6095010
   4.1545200  40.2642700   6.0811870   3.4226320  40.7729510   6.4301970
   3.7569540  39.4472680   5.7800650   4.6171110  35.7176380   5.4934810
   4.6343850  36.1685030   6.3376660   4.3686690  34.8182020   5.7068250
   8.0441860  33.1308560  11.3321190   8.3687630  32.3998220  11.8579170
   8.0798370  32.8122200  10.4302180   7.9699700  43.2433670   4.9407220
   8.6898820  43.7388960   4.5503330   7.7681520  42.5651560   4.2961090
   3.3518500  43.3142730  10.8276220   3.2855810  42.3938400  10.5733810
   2.7223640  43.4118170  11.5420860   3.2835230  46.1363300  10.5780020
   3.2979770  45.2044260  10.3598930   2.5760330  46.2223060  11.2169790
   9.4946440  42.7770640   9.9248600   8.7694630  43.3699420   9.7277990
  10.0221900  42.7694180   9.1261970   5.0246030  44.5030810   3.4232450
   5.3769850  43.9058940   2.7633820   4.1408360  44.1775040   3.5940700
   2.7169130  47.7780870   7.6720520   3.3611350  47.9840250   8.3493940
   3.0798570  47.0169270   7.2191370   3.9901210  45.7813220   6.3897970
   4.6323440  45.0806380   6.5030140   4.5150560  46.5611660   6.2094860
   5.7638830  46.5808120   9.5934030   6.0995070  47.1674810  10.2711950
   4.8439170  46.4500830   9.8231820   4.8081010  36.8625610   8.1258890
   5.1761830  36.0420820   8.4538460   3.9479210  36.9227500   8.5414540
   1.7683000  39.5165200   8.3496860   2.2668250  39.9911020   9.0148710
   1.9105950  38.5928720   8.5566890   8.9749860  35.7333160   9.1925250
   8.4723460  36.4738560   9.5319060   9.7906520  36.1217160   8.8762040
   7.2671870  40.9766340   2.6386610   6.3262010  40.9916570   2.8134300
   7.5815940  40.1902300   3.0846910   9.2697450  48.1475190   4.3140870
   9.3944870  48.9706360   4.7864680  10.1363010  47.9365920   3.9665020
   4.5837890  45.5332340  13.1218990   3.9776050  45.5563940  12.3814740
   4.2792000  44.8015380  13.6586240   6.0138260  49.2612630  11.7328400
   6.9660010  49.1770650  11.6828640   5.8666480  49.9254340  12.4062190
   7.6632360  45.0502250  12.2090170   8.4041830  45.3878010  11.7057630
   6.9005040  45.2194310  11.6559940   6.3378020  43.1017080  10.7445380
   6.7519040  43.2562160  11.5935800   5.4029020  43.2272300  10.9071160
   6.8100190  40.4413240  12.7484530   7.3920960  39.6865560  12.6605010
   6.9861960  40.9720680  11.9716010   3.4357150  40.7853740  10.0979150
   3.5553360  40.1894880  10.8373990   4.2951150  40.8223430   9.6780450
   5.7745050  41.3390930   8.6741660   5.2480270  41.8633550   8.0706800
   6.1176390  41.9718320   9.3051390   5.0219350  36.9440900  11.5887990
   4.3334870  36.2822440  11.5237980   5.7425370  36.4979170  12.0336450
   9.3342560  48.2903960  10.4178250   8.7344550  48.3496520   9.6742170
   9.4636460  47.3508940  10.5475100  11.0360440  43.6319360   3.1024090
  11.4069270  42.8486680   2.6960060  11.6762370  44.3208460   2.9241390
   8.0194200  45.0155940   8.5154410   7.2054040  45.4453100   8.7780200
   8.4268400  45.6274350   7.9023460   9.3684600  40.1544140  10.0423630
   9.1370690  39.9256890   9.1421580   9.6289150  41.0743690   9.9968520
   7.8072670  35.3800570  12.8203330   8.6842850  35.3883970  13.2037330
   7.8193510  34.6431410  12.2095680   9.2535940  39.2330110   3.7091350
   9.7773420  38.7392760   3.0781520   9.8395360  39.3680470   4.4538920
   9.4325660  39.3169980   7.2310900   8.4828370  39.2833520   7.3455890
   9.6138670  40.2270090   6.9960670  10.1723070  37.1264410   2.1821440
  10.0622350  36.9720450   3.1203710  10.9330660  36.5985350   1.9396850
   8.5188790  33.0658540   8.6404440   9.1561010  33.6792680   9.0063630
   8.6663680  33.1019200   7.6953670   1.8893270  34.2184730  11.5479540
   1.8282160  34.8106560  12.2974950   2.8293650  34.1110690  11.4029800
   4.5267830  33.8754790  11.1871830   5.1408240  34.1934080  10.5252910
   5.0717390  33.3903380  11.8067690  10.9443010  49.7746420   8.5933670
  10.4501290  50.1715290   7.8760800  10.3356300  49.1495630   8.9870950
   5.2675870  32.4386930   7.5141120   4.3935710  32.7722040   7.3114050
   5.1586620  31.9660110   8.3392990   6.1747850  34.6457800   8.8982840
   5.8461210  33.8309560   8.5184570   7.1230150  34.6027610   8.7748530
   8.6282460  50.4169840   5.8720410   8.1685430  51.1685650   5.4978430
   7.9994920  49.6976310   5.8135210   1.7973680  49.6166570   5.8737520
   2.0851490  49.3620870   4.9970530   2.3096900  49.0643930   6.4643090
   3.0150690  33.3556770   6.4534030   2.2322480  33.8302270   6.7330790
   2.7213620  32.4511600   6.3447210   7.5671760  34.0579870   4.4983120
   8.0079850  34.0024970   3.6504720   7.2979350  34.9737880   4.5693300
   9.4310330  33.6895110   2.5091940   9.3698730  32.7456330   2.3622960
  10.2102360  33.7975200   3.0545400   5.4029890  32.4385970   3.2033130
   6.0059260  33.0106180   3.6781650   4.6622880  33.0025410   2.9807030
   1.8646040  50.5382670  13.2405720   2.7913350  50.3026940  13.2841680
   1.8496470  51.3654670  12.7591750   5.6525110  32.6181000  13.5828070
   5.5390560  32.9375610  14.4779590   6.4694850  33.0193510  13.2865350
   8.4323600  49.7652530  13.0646760   9.2248920  49.2701760  12.8572720
   8.7256750  50.4442670  13.6722370   4.5583260  21.8629980  77.8180260
   4.4777310  20.9484590  77.5471970   4.1447680  22.3597050  77.1119970
   2.6901300  23.6409000  79.6989530   1.9143400  23.1609440  79.9888100
   3.3414230  22.9614650  79.5245690   6.7108730  28.0469190  78.4788660
   6.2490260  27.2756430  78.8075830   7.5234280  28.0735260  78.9841110
   2.9372040  30.3327200  78.0992650   2.3183480  30.7884700  77.5287090
   3.7923820  30.4878660  77.6982350   2.1310290  26.3166190  79.7059690
   2.0618570  25.3756130  79.5448820   2.8930150  26.4067600  80.2782260
   3.1615460  19.1236570  79.9328620   3.5380280  18.2508450  79.8202290
   3.0634970  19.4595270  79.0419060   6.9439580  16.6187010  76.8656960
   7.7649200  16.1283580  76.9082440   6.9773660  17.2084670  77.6188800
   3.8035390  25.2166440  75.4924560   3.1852660  25.6815890  74.9287280
   4.3158640  25.9093920  75.9094070   7.1801060  18.5587390  79.6384500
   6.4756630  18.8472280  80.2187610   7.5413220  19.3687500  79.2784060
   8.7963840  28.1762520  81.9011980   8.1127360  28.8461630  81.8928650
   9.3358130  28.3743170  81.1356840  10.2487980  18.0042180  80.0293710
   9.3012890  18.0381160  80.1609140  10.5737970  18.8181130  80.4143070
   6.3322580  30.0206650  80.6157160   6.3449740  29.6168940  79.7479420
   5.7797800  30.7953940  80.5118590   7.6268000  26.7422870  75.7047330
   7.5164330  25.7997200  75.8296750   7.6236250  27.1038510  76.5910090
   3.1688280  22.3688190  75.0609820   2.2417560  22.3025570  75.2898290
   3.3213100  23.3068320  74.9465060   3.1557360  18.6405190  72.0576980
   2.2161030  18.8019150  72.1429440   3.4740620  19.3590870  71.5112970
   9.6770120  23.3223710  82.0356010   8.8488750  23.3916800  81.5606140
  10.2720600  23.9078020  81.5671840   7.1985570  23.9308490  75.5645070
   6.5797990  23.5928040  74.9171370   7.1810020  23.2868250  76.2724260
   5.3750270  23.1695300  72.5717820   5.8143550  22.3317730  72.4255640
   6.0878690  23.8024700  72.6581960   3.4845650  28.1091370  76.5399060
   3.9241560  28.8515700  76.1254450   3.4232540  28.3517940  77.4638020
   8.9567410  14.4238110  70.8858860   8.6440070  14.5164940  71.7857930
   9.7179880  15.0019140  70.8356290   6.1515830  31.0960490  73.8962070
   5.9916970  30.8063430  74.7943900   5.9862540  30.3200620  73.3607300
   5.8541960  28.6048050  72.4560070   5.1607120  28.6025340  71.7962350
   6.5964820  28.1807370  72.0254240   5.4191890  30.2310760  76.5308560
   5.8748840  29.4500140  76.8447180   5.7584410  30.9417580  77.0749740
   4.9625190  20.2629920  75.0531770   4.3634080  20.9865720  74.8695390
   5.5104800  20.2006700  74.2708220   3.5690060  18.8993460  77.0835050
   3.9619630  19.2165660  76.2703740   3.9306910  18.0205340  77.1979570
   4.1545200  21.4899210  81.1785830   3.4226320  21.9986020  81.5275930
   3.7569540  20.6729190  80.8774610   4.6171110  16.9432890  80.5908770
   4.6343850  17.3941540  81.4350620   4.3686690  16.0438530  80.8042210
   7.9699700  24.4690180  80.0381180   8.6898820  24.9645470  79.6477290
   7.7681520  23.7908070  79.3935050   3.4309640  15.8628140  74.1810570
   2.6174250  15.3641310  74.1055880   3.2371590  16.7026390  73.7646920
   6.1458030  20.2347790  72.4772730   7.0337650  20.5465020  72.3024070
   6.1163120  19.3620040  72.0853310   8.4172300  21.5459630  71.9452590
   8.3336020  21.9773850  71.0949030   9.1366490  22.0057980  72.3779410
   9.4459550  28.4001890  74.6734720   8.8035710  27.7457510  74.9478440
   9.0590210  28.8056980  73.8975390   5.0246030  25.7287320  78.5206410
   5.3769850  25.1315450  77.8607780   4.1408360  25.4031550  78.6914660
   3.9901210  27.0069730  81.4871930   4.6323440  26.3062890  81.6004100
   4.5150560  27.7868170  81.3068820   7.8356930  27.2918350  71.2111070
   7.6094510  26.5748790  71.8035710   7.4453130  27.0430790  70.3732820
   7.4173180  25.2090290  72.8725230   7.1294880  25.6702980  73.6603110
   8.2125350  24.7488060  73.1409450   8.1743040  17.0439060  74.0320410
   7.5456200  17.1484730  73.3178640   7.6794960  17.2635840  74.8214290
   2.6201180  28.7644650  71.4654390   2.7213160  28.5608640  70.5356370
   1.7202920  28.5102930  71.6702170   4.1742500  16.0475670  76.8874080
   4.0510280  16.0661800  75.9383590   5.1227060  16.0954610  77.0072480
   7.2671870  22.2022850  77.7360570   6.3262010  22.2173080  77.9108260
   7.5815940  21.4158810  78.1820870   9.2697450  29.3731700  79.4114830
   9.3944870  30.1962870  79.8838640  10.1363010  29.1622430  79.0638980
   8.9047460  29.8663350  72.3294270   8.6188970  29.4528490  71.5148450
   8.7067010  30.7951060  72.2094790   3.6097420  24.9216660  71.3741870
   3.0607520  25.3685960  72.0184610   4.2316680  24.4165910  71.8979540
   1.7900180  22.9045190  70.5184270   2.3105840  22.1894210  70.1525420
   2.4368580  23.5431060  70.8184780   5.6519750  14.7649040  72.7452210
   5.9322040  13.9216940  73.1011630   4.8785480  14.9972150  73.2590960
   2.3548210  30.9856800  72.8086010   3.2499000  31.3241770  72.8304770
   2.3865840  30.2636210  72.1810290  10.5744010  27.2578290  70.8521920
   9.7436970  27.3254940  71.3229150  10.7515840  28.1482410  70.5488780
  10.0300470  24.0025770  73.3556120  10.7919380  24.5722420  73.4615810
  10.0454840  23.4352970  74.1264430  11.0360440  24.8575870  78.1998050
  11.4069270  24.0743190  77.7934020  11.6762370  25.5464970  78.0215350
  10.0819640  24.2960140  70.5128640  10.3568480  25.2039020  70.3847860
   9.8930380  24.2322670  71.4490630   6.4795250  17.3204990  71.8082270
   6.8980130  17.1335970  70.9678930   6.1731310  16.4684040  72.1185200
   9.9784980  22.2329130  75.5058070   9.6028580  21.4657060  75.0739360
   9.2488100  22.6151830  75.9933000   9.2535940  20.4586620  78.8065310
   9.7773420  19.9649270  78.1755480   9.8395360  20.5936980  79.5512880
   8.7435910  19.7159970  74.7457720   9.2395030  19.4830840  75.5306600
   8.5451980  18.8771810  74.3295360  10.1723070  18.3520920  77.2795400
  10.0622350  18.1976960  78.2177670  10.9330660  17.8241860  77.0370810
  11.0613340  16.1828840  70.5201540  11.9862650  16.0510020  70.3119830
  11.0389130  16.2621660  71.4737990  11.1351830  16.9539500  73.1458250
  10.3403330  16.8884620  73.6751160  11.3395110  17.8890140  73.1343600
   8.0770250  30.9931050  77.1396640   8.6729320  30.6715620  76.4631060
   8.3348400  30.5202870  77.9309910   8.6282460  31.6426350  80.9694370
   8.1685430  32.3942160  80.5952390   7.9994920  30.9232820  80.9109170
   1.7973680  30.8423080  80.9711480   2.0851490  30.5877380  80.0944490
   2.3096900  30.2900440  81.5617050   3.0150690  14.5813280  81.5507990
   2.2322480  15.0558780  81.8304750   2.7213620  13.6768110  81.4421170
   7.5671760  15.2836380  79.5957080   8.0079850  15.2281480  78.7478680
   7.2979350  16.1994390  79.6667260   9.4310330  14.9151620  77.6065900
   9.3698730  13.9712840  77.4596920  10.2102360  15.0231710  78.1519360
   5.4029890  13.6642480  78.3007090   6.0059260  14.2362690  78.7755610
   4.6622880  14.2281920  78.0780990   8.5464490  14.0664040  73.5747370
   8.7415120  14.9647490  73.8414800   7.7594360  13.8351120  74.0680320
  10.0991100  31.3064750  75.3353930  10.2743290  30.6202490  74.6914850
   9.4012670  31.8311800  74.9430600   4.5583260  21.8629980  59.0436770
   4.4777310  20.9484590  58.7728480   4.1447680  22.3597050  58.3376480
   2.6901300  23.6409000  60.9246040   1.9143400  23.1609440  61.2144610
   3.3414230  22.9614650  60.7502200   6.7108730  28.0469190  59.7045170
   6.2490260  27.2756430  60.0332340   7.5234280  28.0735260  60.2097620
   2.9372040  30.3327200  59.3249160   2.3183480  30.7884700  58.7543600
   3.7923820  30.4878660  58.9238860   2.1310290  26.3166190  60.9316200
   2.0618570  25.3756130  60.7705330   2.8930150  26.4067600  61.5038770
   3.1615460  19.1236570  61.1585130   3.5380280  18.2508450  61.0458800
   3.0634970  19.4595270  60.2675570   6.9439580  16.6187010  58.0913470
   7.7649200  16.1283580  58.1338950   6.9773660  17.2084670  58.8445310
  11.2339130  18.6353760  64.6557100  10.5291300  19.0235470  64.1372210
  11.4997050  19.3304050  65.2578030   3.8035390  25.2166440  56.7181070
   3.1852660  25.6815890  56.1543790   4.3158640  25.9093920  57.1350580
   7.1801060  18.5587390  60.8641010   6.4756630  18.8472280  61.4444120
   7.5413220  19.3687500  60.5040570   8.7963840  28.1762520  63.1268490
   8.1127360  28.8461630  63.1185160   9.3358130  28.3743170  62.3613350
  10.2487980  18.0042180  61.2550220   9.3012890  18.0381160  61.3865650
  10.5737970  18.8181130  61.6399580   6.3322580  30.0206650  61.8413670
   6.3449740  29.6168940  60.9735930   5.7797800  30.7953940  61.7375100
   7.6268000  26.7422870  56.9303840   7.5164330  25.7997200  57.0553260
   7.6236250  27.1038510  57.8166600   5.7308020  24.9236490  63.1696280
   6.1476810  24.7096600  62.3349740   6.4547840  25.1809280  63.7404900
   3.1688280  22.3688190  56.2866330   2.2417560  22.3025570  56.5154800
   3.3213100  23.3068320  56.1721570   3.1557360  18.6405190  53.2833490
   2.2161030  18.8019150  53.3685950   3.4740620  19.3590870  52.7369480
   9.6770120  23.3223710  63.2612520   8.8488750  23.3916800  62.7862650
  10.2720600  23.9078020  62.7928350   7.1985570  23.9308490  56.7901580
   6.5797990  23.5928040  56.1427880   7.1810020  23.2868250  57.4980770
   6.6412130  20.1093030  64.2067390   6.2283310  20.9346740  64.4607380
   5.9088080  19.5238070  64.0143750   7.3312230  30.1552360  64.8948370
   6.8542790  30.9624550  64.7020980   6.6474020  29.5030690  65.0474580
   5.3750270  23.1695300  53.7974330   5.8143550  22.3317730  53.6512150
   6.0878690  23.8024700  53.8838470   3.4845650  28.1091370  57.7655570
   3.9241560  28.8515700  57.3510960   3.4232540  28.3517940  58.6894530
   8.9567410  14.4238110  52.1115370   8.6440070  14.5164940  53.0114440
   9.7179880  15.0019140  52.0612800  10.9111440  29.9164300  69.9639760
  11.3871160  30.3947190  70.6428840  11.5318600  29.8481790  69.2385260
  10.3144690  27.1077150  67.1239770  10.4407750  26.8689030  66.2056950
  10.3566070  26.2761690  67.5961850   4.1761430  30.8105150  65.6934580
   4.6906100  30.7213160  66.4957010   3.3330510  31.1564850  65.9862490
   6.1515830  31.0960490  55.1218580   5.9916970  30.8063430  56.0200410
   5.9862540  30.3200620  54.5863810   5.8541960  28.6048050  53.6816580
   5.1607120  28.6025340  53.0218860   6.5964820  28.1807370  53.2510750
   5.4191890  30.2310760  57.7565070   5.8748840  29.4500140  58.0703690
   5.7584410  30.9417580  58.3006250  10.1668700  19.1609610  68.0889510
   9.5512970  19.6689280  67.5604970   9.8465120  18.2607940  68.0315450
   2.2283020  18.0001500  65.5551700   1.7662390  18.2084520  66.3671640
   1.8261130  17.1860850  65.2522370   7.2287530  19.2210450  66.6848360
   6.3781120  18.9216200  67.0057430   7.0689320  19.4652460  65.7732180
   4.3237240  20.7212200  68.7847150   4.6490650  19.8875950  68.4449380
   5.1117570  21.2440720  68.9325480   4.9625190  20.2629920  56.2788280
   4.3634080  20.9865720  56.0951900   5.5104800  20.2006700  55.4964730
   3.5690060  18.8993460  58.3091560   3.9619630  19.2165660  57.4960250
   3.9306910  18.0205340  58.4236080   4.1545200  21.4899210  62.4042340
   3.4226320  21.9986020  62.7532440   3.7569540  20.6729190  62.1031120
   4.6171110  16.9432890  61.8165280   4.6343850  17.3941540  62.6607130
   4.3686690  16.0438530  62.0298720   8.0441860  14.3565070  67.6551660
   8.3687630  13.6254730  68.1809640   8.0798370  14.0378710  66.7532650
   7.9699700  24.4690180  61.2637690   8.6898820  24.9645470  60.8733800
   7.7681520  23.7908070  60.6191560   3.4309640  15.8628140  55.4067080
   2.6174250  15.3641310  55.3312390   3.2371590  16.7026390  54.9903430
   3.3518500  24.5399240  67.1506690   3.2855810  23.6194910  66.8964280
   2.7223640  24.6374680  67.8651330   6.1458030  20.2347790  53.7029240
   7.0337650  20.5465020  53.5280580   6.1163120  19.3620040  53.3109820
   3.2835230  27.3619810  66.9010490   3.2979770  26.4300770  66.6829400
   2.5760330  27.4479570  67.5400260   8.4172300  21.5459630  53.1709100
   8.3336020  21.9773850  52.3205540   9.1366490  22.0057980  53.6035920
   9.4946440  24.0027150  66.2479070   8.7694630  24.5955930  66.0508460
  10.0221900  23.9950690  65.4492440   9.4459550  28.4001890  55.8991230
   8.8035710  27.7457510  56.1734950   9.0590210  28.8056980  55.1231900
   5.0246030  25.7287320  59.7462920   5.3769850  25.1315450  59.0864290
   4.1408360  25.4031550  59.9171170   2.7169130  29.0037380  63.9950990
   3.3611350  29.2096760  64.6724410   3.0798570  28.2425780  63.5421840
   3.9901210  27.0069730  62.7128440   4.6323440  26.3062890  62.8260610
   4.5150560  27.7868170  62.5325330   7.8356930  27.2918350  52.4367580
   7.6094510  26.5748790  53.0292220   7.4453130  27.0430790  51.5989330
   5.7638830  27.8064630  65.9164500   6.0995070  28.3931320  66.5942420
   4.8439170  27.6757340  66.1462290   7.4173180  25.2090290  54.0981740
   7.1294880  25.6702980  54.8859620   8.2125350  24.7488060  54.3665960
   4.8081010  18.0882120  64.4489360   5.1761830  17.2677330  64.7768930
   3.9479210  18.1484010  64.8645010   8.1743040  17.0439060  55.2576920
   7.5456200  17.1484730  54.5435150   7.6794960  17.2635840  56.0470800
   2.6201180  28.7644650  52.6910900   2.7213160  28.5608640  51.7612880
   1.7202920  28.5102930  52.8958680   1.7683000  20.7421710  64.6727330
   2.2668250  21.2167530  65.3379180   1.9105950  19.8185230  64.8797360
   4.1742500  16.0475670  58.1130590   4.0510280  16.0661800  57.1640100
   5.1227060  16.0954610  58.2328990   8.9749860  16.9589670  65.5155720
   8.4723460  17.6995070  65.8549530   9.7906520  17.3473670  65.1992510
   7.2671870  22.2022850  58.9617080   6.3262010  22.2173080  59.1364770
   7.5815940  21.4158810  59.4077380   9.2697450  29.3731700  60.6371340
   9.3944870  30.1962870  61.1095150  10.1363010  29.1622430  60.2895490
   4.5837890  26.7588850  69.4449460   3.9776050  26.7820450  68.7045210
   4.2792000  26.0271890  69.9816710   6.0138260  30.4869140  68.0558870
   6.9660010  30.4027160  68.0059110   5.8666480  31.1510850  68.7292660
   8.9047460  29.8663350  53.5550780   8.6188970  29.4528490  52.7404960
   8.7067010  30.7951060  53.4351300   3.6097420  24.9216660  52.5998380
   3.0607520  25.3685960  53.2441120   4.2316680  24.4165910  53.1236050
   7.6632360  26.2758760  68.5320640   8.4041830  26.6134520  68.0288100
   6.9005040  26.4450820  67.9790410   1.7900180  22.9045190  51.7440780
   2.3105840  22.1894210  51.3781930   2.4368580  23.5431060  52.0441290
   6.3378020  24.3273590  67.0675850   6.7519040  24.4818670  67.9166270
   5.4029020  24.4528810  67.2301630   6.8100190  21.6669750  69.0715000
   7.3920960  20.9122070  68.9835480   6.9861960  22.1977190  68.2946480
   3.4357150  22.0110250  66.4209620   3.5553360  21.4151390  67.1604460
   4.2951150  22.0479940  66.0010920   5.7745050  22.5647440  64.9972130
   5.2480270  23.0890060  64.3937270   6.1176390  23.1974830  65.6281860
   5.0219350  18.1697410  67.9118460   4.3334870  17.5078950  67.8468450
   5.7425370  17.7235680  68.3566920   5.6519750  14.7649040  53.9708720
   5.9322040  13.9216940  54.3268140   4.8785480  14.9972150  54.4847470
   2.3548210  30.9856800  54.0342520   3.2499000  31.3241770  54.0561280
   2.3865840  30.2636210  53.4066800   9.3342560  29.5160470  66.7408720
   8.7344550  29.5753030  65.9972640   9.4636460  28.5765450  66.8705570
  10.5744010  27.2578290  52.0778430   9.7436970  27.3254940  52.5485660
  10.7515840  28.1482410  51.7745290  10.0300470  24.0025770  54.5812630
  10.7919380  24.5722420  54.6872320  10.0454840  23.4352970  55.3520940
  11.0360440  24.8575870  59.4254560  11.4069270  24.0743190  59.0190530
  11.6762370  25.5464970  59.2471860   8.0194200  26.2412450  64.8384880
   7.2054040  26.6709610  65.1010670   8.4268400  26.8530860  64.2253930
  10.0819640  24.2960140  51.7385150  10.3568480  25.2039020  51.6104370
   9.8930380  24.2322670  52.6747140   6.4795250  17.3204990  53.0338780
   6.8980130  17.1335970  52.1935440   6.1731310  16.4684040  53.3441710
   9.9784980  22.2329130  56.7314580   9.6028580  21.4657060  56.2995870
   9.2488100  22.6151830  57.2189510   9.3684600  21.3800650  66.3654100
   9.1370690  21.1513400  65.4652050   9.6289150  22.3000200  66.3198990
   7.8072670  16.6057080  69.1433800   8.6842850  16.6140480  69.5267800
   7.8193510  15.8687920  68.5326150   9.2535940  20.4586620  60.0321820
   9.7773420  19.9649270  59.4011990   9.8395360  20.5936980  60.7769390
   9.4325660  20.5426490  63.5541370   8.4828370  20.5090030  63.6686360
   9.6138670  21.4526600  63.3191140   8.7435910  19.7159970  55.9714230
   9.2395030  19.4830840  56.7563110   8.5451980  18.8771810  55.5551870
  10.1723070  18.3520920  58.5051910  10.0622350  18.1976960  59.4434180
  10.9330660  17.8241860  58.2627320   8.5188790  14.2915050  64.9634910
   9.1561010  14.9049190  65.3294100   8.6663680  14.3275710  64.0184140
  11.0613340  16.1828840  51.7458050  11.9862650  16.0510020  51.5376340
  11.0389130  16.2621660  52.6994500  11.1351830  16.9539500  54.3714760
  10.3403330  16.8884620  54.9007670  11.3395110  17.8890140  54.3600110
   8.0770250  30.9931050  58.3653150   8.6729320  30.6715620  57.6887570
   8.3348400  30.5202870  59.1566420   1.8893270  15.4441240  67.8710010
   1.8282160  16.0363070  68.6205420   2.8293650  15.3367200  67.7260270
   4.5267830  15.1011300  67.5102300   5.1408240  15.4190590  66.8483380
   5.0717390  14.6159890  68.1298160  10.9443010  31.0002930  64.9164140
  10.4501290  31.3971800  64.1991270  10.3356300  30.3752140  65.3101420
   5.2675870  13.6643440  63.8371590   4.3935710  13.9978550  63.6344520
   5.1586620  13.1916620  64.6623460   6.1747850  15.8714310  65.2213310
   5.8461210  15.0566070  64.8415040   7.1230150  15.8284120  65.0979000
   8.6282460  31.6426350  62.1950880   8.1685430  32.3942160  61.8208900
   7.9994920  30.9232820  62.1365680   1.7973680  30.8423080  62.1967990
   2.0851490  30.5877380  61.3201000   2.3096900  30.2900440  62.7873560
   3.0150690  14.5813280  62.7764500   2.2322480  15.0558780  63.0561260
   2.7213620  13.6768110  62.6677680   7.5671760  15.2836380  60.8213590
   8.0079850  15.2281480  59.9735190   7.2979350  16.1994390  60.8923770
   9.4310330  14.9151620  58.8322410   9.3698730  13.9712840  58.6853430
  10.2102360  15.0231710  59.3775870   5.4029890  13.6642480  59.5263600
   6.0059260  14.2362690  60.0012120   4.6622880  14.2281920  59.3037500
   8.5464490  14.0664040  54.8003880   8.7415120  14.9647490  55.0671310
   7.7594360  13.8351120  55.2936830   1.8646040  31.7639180  69.5636190
   2.7913350  31.5283450  69.6072150   1.8496470  32.5911180  69.0822220
  10.0991100  31.3064750  56.5610440  10.2743290  30.6202490  55.9171360
   9.4012670  31.8311800  56.1687110   5.6525110  13.8437510  69.9058540
   5.5390560  14.1632120  70.8010060   6.4694850  14.2450020  69.6095820
   8.4323600  30.9909040  69.3877230   9.2248920  30.4958270  69.1803190
   8.7256750  31.6699180  69.9952840   4.5583260  21.8629980  40.2693280
   4.4777310  20.9484590  39.9984990   4.1447680  22.3597050  39.5632990
   2.6901300  23.6409000  42.1502550   1.9143400  23.1609440  42.4401120
   3.3414230  22.9614650  41.9758710   6.7108730  28.0469190  40.9301680
   6.2490260  27.2756430  41.2588850   7.5234280  28.0735260  41.4354130
   2.9372040  30.3327200  40.5505670   2.3183480  30.7884700  39.9800110
   3.7923820  30.4878660  40.1495370   2.1310290  26.3166190  42.1572710
   2.0618570  25.3756130  41.9961840   2.8930150  26.4067600  42.7295280
   3.1615460  19.1236570  42.3841640   3.5380280  18.2508450  42.2715310
   3.0634970  19.4595270  41.4932080   6.9439580  16.6187010  39.3169980
   7.7649200  16.1283580  39.3595460   6.9773660  17.2084670  40.0701820
  11.2339130  18.6353760  45.8813610  10.5291300  19.0235470  45.3628720
  11.4997050  19.3304050  46.4834540   3.8035390  25.2166440  37.9437580
   3.1852660  25.6815890  37.3800300   4.3158640  25.9093920  38.3607090
   7.1801060  18.5587390  42.0897520   6.4756630  18.8472280  42.6700630
   7.5413220  19.3687500  41.7297080   8.7963840  28.1762520  44.3525000
   8.1127360  28.8461630  44.3441670   9.3358130  28.3743170  43.5869860
  10.2487980  18.0042180  42.4806730   9.3012890  18.0381160  42.6122160
  10.5737970  18.8181130  42.8656090   6.3322580  30.0206650  43.0670180
   6.3449740  29.6168940  42.1992440   5.7797800  30.7953940  42.9631610
   7.6268000  26.7422870  38.1560350   7.5164330  25.7997200  38.2809770
   7.6236250  27.1038510  39.0423110   5.7308020  24.9236490  44.3952790
   6.1476810  24.7096600  43.5606250   6.4547840  25.1809280  44.9661410
   3.1688280  22.3688190  37.5122840   2.2417560  22.3025570  37.7411310
   3.3213100  23.3068320  37.3978080   3.1557360  18.6405190  34.5090000
   2.2161030  18.8019150  34.5942460   3.4740620  19.3590870  33.9625990
   9.6770120  23.3223710  44.4869030   8.8488750  23.3916800  44.0119160
  10.2720600  23.9078020  44.0184860   7.1985570  23.9308490  38.0158090
   6.5797990  23.5928040  37.3684390   7.1810020  23.2868250  38.7237280
   6.6412130  20.1093030  45.4323900   6.2283310  20.9346740  45.6863890
   5.9088080  19.5238070  45.2400260   7.3312230  30.1552360  46.1204880
   6.8542790  30.9624550  45.9277490   6.6474020  29.5030690  46.2731090
   5.3750270  23.1695300  35.0230840   5.8143550  22.3317730  34.8768660
   6.0878690  23.8024700  35.1094980   3.4845650  28.1091370  38.9912080
   3.9241560  28.8515700  38.5767470   3.4232540  28.3517940  39.9151040
   8.9567410  14.4238110  33.3371880   8.6440070  14.5164940  34.2370950
   9.7179880  15.0019140  33.2869310  10.9111440  29.9164300  51.1896270
  11.3871160  30.3947190  51.8685350  11.5318600  29.8481790  50.4641770
  10.3144690  27.1077150  48.3496280  10.4407750  26.8689030  47.4313460
  10.3566070  26.2761690  48.8218360   4.1761430  30.8105150  46.9191090
   4.6906100  30.7213160  47.7213520   3.3330510  31.1564850  47.2119000
   6.1515830  31.0960490  36.3475090   5.9916970  30.8063430  37.2456920
   5.9862540  30.3200620  35.8120320   5.8541960  28.6048050  34.9073090
   5.1607120  28.6025340  34.2475370   6.5964820  28.1807370  34.4767260
   5.4191890  30.2310760  38.9821580   5.8748840  29.4500140  39.2960200
   5.7584410  30.9417580  39.5262760  10.1668700  19.1609610  49.3146020
   9.5512970  19.6689280  48.7861480   9.8465120  18.2607940  49.2571960
   2.2283020  18.0001500  46.7808210   1.7662390  18.2084520  47.5928150
   1.8261130  17.1860850  46.4778880   7.2287530  19.2210450  47.9104870
   6.3781120  18.9216200  48.2313940   7.0689320  19.4652460  46.9988690
   4.3237240  20.7212200  50.0103660   4.6490650  19.8875950  49.6705890
   5.1117570  21.2440720  50.1581990   4.9625190  20.2629920  37.5044790
   4.3634080  20.9865720  37.3208410   5.5104800  20.2006700  36.7221240
   3.5690060  18.8993460  39.5348070   3.9619630  19.2165660  38.7216760
   3.9306910  18.0205340  39.6492590   4.1545200  21.4899210  43.6298850
   3.4226320  21.9986020  43.9788950   3.7569540  20.6729190  43.3287630
   4.6171110  16.9432890  43.0421790   4.6343850  17.3941540  43.8863640
   4.3686690  16.0438530  43.2555230   8.0441860  14.3565070  48.8808170
   8.3687630  13.6254730  49.4066150   8.0798370  14.0378710  47.9789160
   7.9699700  24.4690180  42.4894200   8.6898820  24.9645470  42.0990310
   7.7681520  23.7908070  41.8448070   3.4309640  15.8628140  36.6323590
   2.6174250  15.3641310  36.5568900   3.2371590  16.7026390  36.2159940
   3.3518500  24.5399240  48.3763200   3.2855810  23.6194910  48.1220790
   2.7223640  24.6374680  49.0907840   6.1458030  20.2347790  34.9285750
   7.0337650  20.5465020  34.7537090   6.1163120  19.3620040  34.5366330
   3.2835230  27.3619810  48.1267000   3.2979770  26.4300770  47.9085910
   2.5760330  27.4479570  48.7656770   8.4172300  21.5459630  34.3965610
   8.3336020  21.9773850  33.5462050   9.1366490  22.0057980  34.8292430
   9.4946440  24.0027150  47.4735580   8.7694630  24.5955930  47.2764970
  10.0221900  23.9950690  46.6748950   9.4459550  28.4001890  37.1247740
   8.8035710  27.7457510  37.3991460   9.0590210  28.8056980  36.3488410
   5.0246030  25.7287320  40.9719430   5.3769850  25.1315450  40.3120800
   4.1408360  25.4031550  41.1427680   2.7169130  29.0037380  45.2207500
   3.3611350  29.2096760  45.8980920   3.0798570  28.2425780  44.7678350
   3.9901210  27.0069730  43.9384950   4.6323440  26.3062890  44.0517120
   4.5150560  27.7868170  43.7581840   7.8356930  27.2918350  33.6624090
   7.6094510  26.5748790  34.2548730   7.4453130  27.0430790  32.8245840
   5.7638830  27.8064630  47.1421010   6.0995070  28.3931320  47.8198930
   4.8439170  27.6757340  47.3718800   7.4173180  25.2090290  35.3238250
   7.1294880  25.6702980  36.1116130   8.2125350  24.7488060  35.5922470
   4.8081010  18.0882120  45.6745870   5.1761830  17.2677330  46.0025440
   3.9479210  18.1484010  46.0901520   8.1743040  17.0439060  36.4833430
   7.5456200  17.1484730  35.7691660   7.6794960  17.2635840  37.2727310
   2.6201180  28.7644650  33.9167410   2.7213160  28.5608640  32.9869390
   1.7202920  28.5102930  34.1215190   1.7683000  20.7421710  45.8983840
   2.2668250  21.2167530  46.5635690   1.9105950  19.8185230  46.1053870
   4.1742500  16.0475670  39.3387100   4.0510280  16.0661800  38.3896610
   5.1227060  16.0954610  39.4585500   8.9749860  16.9589670  46.7412230
   8.4723460  17.6995070  47.0806040   9.7906520  17.3473670  46.4249020
   7.2671870  22.2022850  40.1873590   6.3262010  22.2173080  40.3621280
   7.5815940  21.4158810  40.6333890   9.2697450  29.3731700  41.8627850
   9.3944870  30.1962870  42.3351660  10.1363010  29.1622430  41.5152000
   4.5837890  26.7588850  50.6705970   3.9776050  26.7820450  49.9301720
   4.2792000  26.0271890  51.2073220   6.0138260  30.4869140  49.2815380
   6.9660010  30.4027160  49.2315620   5.8666480  31.1510850  49.9549170
   8.9047460  29.8663350  34.7807290   8.6188970  29.4528490  33.9661470
   8.7067010  30.7951060  34.6607810   3.6097420  24.9216660  33.8254890
   3.0607520  25.3685960  34.4697630   4.2316680  24.4165910  34.3492560
   7.6632360  26.2758760  49.7577150   8.4041830  26.6134520  49.2544610
   6.9005040  26.4450820  49.2046920   1.7900180  22.9045190  32.9697290
   2.3105840  22.1894210  32.6038440   2.4368580  23.5431060  33.2697800
   6.3378020  24.3273590  48.2932360   6.7519040  24.4818670  49.1422780
   5.4029020  24.4528810  48.4558140   6.8100190  21.6669750  50.2971510
   7.3920960  20.9122070  50.2091990   6.9861960  22.1977190  49.5202990
   3.4357150  22.0110250  47.6466130   3.5553360  21.4151390  48.3860970
   4.2951150  22.0479940  47.2267430   5.7745050  22.5647440  46.2228640
   5.2480270  23.0890060  45.6193780   6.1176390  23.1974830  46.8538370
   5.0219350  18.1697410  49.1374970   4.3334870  17.5078950  49.0724960
   5.7425370  17.7235680  49.5823430   5.6519750  14.7649040  35.1965230
   5.9322040  13.9216940  35.5524650   4.8785480  14.9972150  35.7103980
   2.3548210  30.9856800  35.2599030   3.2499000  31.3241770  35.2817790
   2.3865840  30.2636210  34.6323310   9.3342560  29.5160470  47.9665230
   8.7344550  29.5753030  47.2229150   9.4636460  28.5765450  48.0962080
  10.5744010  27.2578290  33.3034940   9.7436970  27.3254940  33.7742170
  10.7515840  28.1482410  33.0001800  10.0300470  24.0025770  35.8069140
  10.7919380  24.5722420  35.9128830  10.0454840  23.4352970  36.5777450
  11.0360440  24.8575870  40.6511070  11.4069270  24.0743190  40.2447040
  11.6762370  25.5464970  40.4728370   8.0194200  26.2412450  46.0641390
   7.2054040  26.6709610  46.3267180   8.4268400  26.8530860  45.4510440
  10.0819640  24.2960140  32.9641660  10.3568480  25.2039020  32.8360880
   9.8930380  24.2322670  33.9003650   6.4795250  17.3204990  34.2595290
   6.8980130  17.1335970  33.4191950   6.1731310  16.4684040  34.5698220
   9.9784980  22.2329130  37.9571090   9.6028580  21.4657060  37.5252380
   9.2488100  22.6151830  38.4446020   9.3684600  21.3800650  47.5910610
   9.1370690  21.1513400  46.6908560   9.6289150  22.3000200  47.5455500
   7.8072670  16.6057080  50.3690310   8.6842850  16.6140480  50.7524310
   7.8193510  15.8687920  49.7582660   9.2535940  20.4586620  41.2578330
   9.7773420  19.9649270  40.6268500   9.8395360  20.5936980  42.0025900
   9.4325660  20.5426490  44.7797880   8.4828370  20.5090030  44.8942870
   9.6138670  21.4526600  44.5447650   8.7435910  19.7159970  37.1970740
   9.2395030  19.4830840  37.9819620   8.5451980  18.8771810  36.7808380
  10.1723070  18.3520920  39.7308420  10.0622350  18.1976960  40.6690690
  10.9330660  17.8241860  39.4883830   8.5188790  14.2915050  46.1891420
   9.1561010  14.9049190  46.5550610   8.6663680  14.3275710  45.2440650
  11.0613340  16.1828840  32.9714560  11.9862650  16.0510020  32.7632850
  11.0389130  16.2621660  33.9251010  11.1351830  16.9539500  35.5971270
  10.3403330  16.8884620  36.1264180  11.3395110  17.8890140  35.5856620
   8.0770250  30.9931050  39.5909660   8.6729320  30.6715620  38.9144080
   8.3348400  30.5202870  40.3822930   1.8893270  15.4441240  49.0966520
   1.8282160  16.0363070  49.8461930   2.8293650  15.3367200  48.9516780
   4.5267830  15.1011300  48.7358810   5.1408240  15.4190590  48.0739890
   5.0717390  14.6159890  49.3554670  10.9443010  31.0002930  46.1420650
  10.4501290  31.3971800  45.4247780  10.3356300  30.3752140  46.5357930
   5.2675870  13.6643440  45.0628100   4.3935710  13.9978550  44.8601030
   5.1586620  13.1916620  45.8879970   6.1747850  15.8714310  46.4469820
   5.8461210  15.0566070  46.0671550   7.1230150  15.8284120  46.3235510
   8.6282460  31.6426350  43.4207390   8.1685430  32.3942160  43.0465410
   7.9994920  30.9232820  43.3622190   1.7973680  30.8423080  43.4224500
   2.0851490  30.5877380  42.5457510   2.3096900  30.2900440  44.0130070
   3.0150690  14.5813280  44.0021010   2.2322480  15.0558780  44.2817770
   2.7213620  13.6768110  43.8934190   7.5671760  15.2836380  42.0470100
   8.0079850  15.2281480  41.1991700   7.2979350  16.1994390  42.1180280
   9.4310330  14.9151620  40.0578920   9.3698730  13.9712840  39.9109940
  10.2102360  15.0231710  40.6032380   5.4029890  13.6642480  40.7520110
   6.0059260  14.2362690  41.2268630   4.6622880  14.2281920  40.5294010
   8.5464490  14.0664040  36.0260390   8.7415120  14.9647490  36.2927820
   7.7594360  13.8351120  36.5193340   1.8646040  31.7639180  50.7892700
   2.7913350  31.5283450  50.8328660   1.8496470  32.5911180  50.3078730
  10.0991100  31.3064750  37.7866950  10.2743290  30.6202490  37.1427870
   9.4012670  31.8311800  37.3943620   5.6525110  13.8437510  51.1315050
   5.5390560  14.1632120  52.0266570   6.4694850  14.2450020  50.8352330
   8.4323600  30.9909040  50.6133740   9.2248920  30.4958270  50.4059700
   8.7256750  31.6699180  51.2209350   4.5583260  21.8629980  21.4949790
   4.4777310  20.9484590  21.2241500   4.1447680  22.3597050  20.7889500
   2.6901300  23.6409000  23.3759060   1.9143400  23.1609440  23.6657630
   3.3414230  22.9614650  23.2015220   6.7108730  28.0469190  22.1558190
   6.2490260  27.2756430  22.4845360   7.5234280  28.0735260  22.6610640
   2.9372040  30.3327200  21.7762180   2.3183480  30.7884700  21.2056620
   3.7923820  30.4878660  21.3751880   2.1310290  26.3166190  23.3829220
   2.0618570  25.3756130  23.2218350   2.8930150  26.4067600  23.9551790
   3.1615460  19.1236570  23.6098150   3.5380280  18.2508450  23.4971820
   3.0634970  19.4595270  22.7188590   6.9439580  16.6187010  20.5426490
   7.7649200  16.1283580  20.5851970   6.9773660  17.2084670  21.2958330
  11.2339130  18.6353760  27.1070120  10.5291300  19.0235470  26.5885230
  11.4997050  19.3304050  27.7091050   3.8035390  25.2166440  19.1694090
   3.1852660  25.6815890  18.6056810   4.3158640  25.9093920  19.5863600
   7.1801060  18.5587390  23.3154030   6.4756630  18.8472280  23.8957140
   7.5413220  19.3687500  22.9553590   8.7963840  28.1762520  25.5781510
   8.1127360  28.8461630  25.5698180   9.3358130  28.3743170  24.8126370
  10.2487980  18.0042180  23.7063240   9.3012890  18.0381160  23.8378670
  10.5737970  18.8181130  24.0912600   6.3322580  30.0206650  24.2926690
   6.3449740  29.6168940  23.4248950   5.7797800  30.7953940  24.1888120
   7.6268000  26.7422870  19.3816860   7.5164330  25.7997200  19.5066280
   7.6236250  27.1038510  20.2679620   5.7308020  24.9236490  25.6209300
   6.1476810  24.7096600  24.7862760   6.4547840  25.1809280  26.1917920
   3.1688280  22.3688190  18.7379350   2.2417560  22.3025570  18.9667820
   3.3213100  23.3068320  18.6234590   3.1557360  18.6405190  15.7346510
   2.2161030  18.8019150  15.8198970   3.4740620  19.3590870  15.1882500
   9.6770120  23.3223710  25.7125540   8.8488750  23.3916800  25.2375670
  10.2720600  23.9078020  25.2441370   7.1985570  23.9308490  19.2414600
   6.5797990  23.5928040  18.5940900   7.1810020  23.2868250  19.9493790
   6.6412130  20.1093030  26.6580410   6.2283310  20.9346740  26.9120400
   5.9088080  19.5238070  26.4656770   7.3312230  30.1552360  27.3461390
   6.8542790  30.9624550  27.1534000   6.6474020  29.5030690  27.4987600
   5.3750270  23.1695300  16.2487350   5.8143550  22.3317730  16.1025170
   6.0878690  23.8024700  16.3351490   3.4845650  28.1091370  20.2168590
   3.9241560  28.8515700  19.8023980   3.4232540  28.3517940  21.1407550
   8.9567410  14.4238110  14.5628390   8.6440070  14.5164940  15.4627460
   9.7179880  15.0019140  14.5125820  10.9111440  29.9164300  32.4152780
  11.3871160  30.3947190  33.0941860  11.5318600  29.8481790  31.6898280
  10.3144690  27.1077150  29.5752790  10.4407750  26.8689030  28.6569970
  10.3566070  26.2761690  30.0474870   4.1761430  30.8105150  28.1447600
   4.6906100  30.7213160  28.9470030   3.3330510  31.1564850  28.4375510
   6.1515830  31.0960490  17.5731600   5.9916970  30.8063430  18.4713430
   5.9862540  30.3200620  17.0376830   5.8541960  28.6048050  16.1329600
   5.1607120  28.6025340  15.4731880   6.5964820  28.1807370  15.7023770
   5.4191890  30.2310760  20.2078090   5.8748840  29.4500140  20.5216710
   5.7584410  30.9417580  20.7519270  10.1668700  19.1609610  30.5402530
   9.5512970  19.6689280  30.0117990   9.8465120  18.2607940  30.4828470
   2.2283020  18.0001500  28.0064720   1.7662390  18.2084520  28.8184660
   1.8261130  17.1860850  27.7035390   7.2287530  19.2210450  29.1361380
   6.3781120  18.9216200  29.4570450   7.0689320  19.4652460  28.2245200
   4.3237240  20.7212200  31.2360170   4.6490650  19.8875950  30.8962400
   5.1117570  21.2440720  31.3838500   4.9625190  20.2629920  18.7301300
   4.3634080  20.9865720  18.5464920   5.5104800  20.2006700  17.9477750
   3.5690060  18.8993460  20.7604580   3.9619630  19.2165660  19.9473270
   3.9306910  18.0205340  20.8749100   4.1545200  21.4899210  24.8555360
   3.4226320  21.9986020  25.2045460   3.7569540  20.6729190  24.5544140
   4.6171110  16.9432890  24.2678300   4.6343850  17.3941540  25.1120150
   4.3686690  16.0438530  24.4811740   8.0441860  14.3565070  30.1064680
   8.3687630  13.6254730  30.6322660   8.0798370  14.0378710  29.2045670
   7.9699700  24.4690180  23.7150710   8.6898820  24.9645470  23.3246820
   7.7681520  23.7908070  23.0704580   3.4309640  15.8628140  17.8580100
   2.6174250  15.3641310  17.7825410   3.2371590  16.7026390  17.4416450
   3.3518500  24.5399240  29.6019710   3.2855810  23.6194910  29.3477300
   2.7223640  24.6374680  30.3164350   6.1458030  20.2347790  16.1542260
   7.0337650  20.5465020  15.9793600   6.1163120  19.3620040  15.7622840
   3.2835230  27.3619810  29.3523510   3.2979770  26.4300770  29.1342420
   2.5760330  27.4479570  29.9913280   8.4172300  21.5459630  15.6222120
   8.3336020  21.9773850  14.7718560   9.1366490  22.0057980  16.0548940
   9.4946440  24.0027150  28.6992090   8.7694630  24.5955930  28.5021480
  10.0221900  23.9950690  27.9005460   9.4459550  28.4001890  18.3504250
   8.8035710  27.7457510  18.6247970   9.0590210  28.8056980  17.5744920
   5.0246030  25.7287320  22.1975940   5.3769850  25.1315450  21.5377310
   4.1408360  25.4031550  22.3684190   2.7169130  29.0037380  26.4464010
   3.3611350  29.2096760  27.1237430   3.0798570  28.2425780  25.9934860
   3.9901210  27.0069730  25.1641460   4.6323440  26.3062890  25.2773630
   4.5150560  27.7868170  24.9838350   7.8356930  27.2918350  14.8880600
   7.6094510  26.5748790  15.4805240   7.4453130  27.0430790  14.0502350
   5.7638830  27.8064630  28.3677520   6.0995070  28.3931320  29.0455440
   4.8439170  27.6757340  28.5975310   7.4173180  25.2090290  16.5494760
   7.1294880  25.6702980  17.3372640   8.2125350  24.7488060  16.8178980
   4.8081010  18.0882120  26.9002380   5.1761830  17.2677330  27.2281950
   3.9479210  18.1484010  27.3158030   8.1743040  17.0439060  17.7089940
   7.5456200  17.1484730  16.9948170   7.6794960  17.2635840  18.4983820
   2.6201180  28.7644650  15.1423920   2.7213160  28.5608640  14.2125900
   1.7202920  28.5102930  15.3471700   1.7683000  20.7421710  27.1240350
   2.2668250  21.2167530  27.7892200   1.9105950  19.8185230  27.3310380
   4.1742500  16.0475670  20.5643610   4.0510280  16.0661800  19.6153120
   5.1227060  16.0954610  20.6842010   8.9749860  16.9589670  27.9668740
   8.4723460  17.6995070  28.3062550   9.7906520  17.3473670  27.6505530
   7.2671870  22.2022850  21.4130100   6.3262010  22.2173080  21.5877790
   7.5815940  21.4158810  21.8590400   9.2697450  29.3731700  23.0884360
   9.3944870  30.1962870  23.5608170  10.1363010  29.1622430  22.7408510
   4.5837890  26.7588850  31.8962480   3.9776050  26.7820450  31.1558230
   4.2792000  26.0271890  32.4329730   6.0138260  30.4869140  30.5071890
   6.9660010  30.4027160  30.4572130   5.8666480  31.1510850  31.1805680
   8.9047460  29.8663350  16.0063800   8.6188970  29.4528490  15.1917980
   8.7067010  30.7951060  15.8864320   3.6097420  24.9216660  15.0511400
   3.0607520  25.3685960  15.6954140   4.2316680  24.4165910  15.5749070
   7.6632360  26.2758760  30.9833660   8.4041830  26.6134520  30.4801120
   6.9005040  26.4450820  30.4303430   1.7900180  22.9045190  14.1953800
   2.3105840  22.1894210  13.8294950   2.4368580  23.5431060  14.4954310
   6.3378020  24.3273590  29.5188870   6.7519040  24.4818670  30.3679290
   5.4029020  24.4528810  29.6814650   6.8100190  21.6669750  31.5228020
   7.3920960  20.9122070  31.4348500   6.9861960  22.1977190  30.7459500
   3.4357150  22.0110250  28.8722640   3.5553360  21.4151390  29.6117480
   4.2951150  22.0479940  28.4523940   5.7745050  22.5647440  27.4485150
   5.2480270  23.0890060  26.8450290   6.1176390  23.1974830  28.0794880
   5.0219350  18.1697410  30.3631480   4.3334870  17.5078950  30.2981470
   5.7425370  17.7235680  30.8079940   5.6519750  14.7649040  16.4221740
   5.9322040  13.9216940  16.7781160   4.8785480  14.9972150  16.9360490
   2.3548210  30.9856800  16.4855540   3.2499000  31.3241770  16.5074300
   2.3865840  30.2636210  15.8579820   9.3342560  29.5160470  29.1921740
   8.7344550  29.5753030  28.4485660   9.4636460  28.5765450  29.3218590
  10.5744010  27.2578290  14.5291450   9.7436970  27.3254940  14.9998680
  10.7515840  28.1482410  14.2258310  10.0300470  24.0025770  17.0325650
  10.7919380  24.5722420  17.1385340  10.0454840  23.4352970  17.8033960
  11.0360440  24.8575870  21.8767580  11.4069270  24.0743190  21.4703550
  11.6762370  25.5464970  21.6984880   8.0194200  26.2412450  27.2897900
   7.2054040  26.6709610  27.5523690   8.4268400  26.8530860  26.6766950
  10.0819640  24.2960140  14.1898170  10.3568480  25.2039020  14.0617390
   9.8930380  24.2322670  15.1260160   6.4795250  17.3204990  15.4851800
   6.8980130  17.1335970  14.6448460   6.1731310  16.4684040  15.7954730
   9.9784980  22.2329130  19.1827600   9.6028580  21.4657060  18.7508890
   9.2488100  22.6151830  19.6702530   9.3684600  21.3800650  28.8167120
   9.1370690  21.1513400  27.9165070   9.6289150  22.3000200  28.7712010
   7.8072670  16.6057080  31.5946820   8.6842850  16.6140480  31.9780820
   7.8193510  15.8687920  30.9839170   9.2535940  20.4586620  22.4834840
   9.7773420  19.9649270  21.8525010   9.8395360  20.5936980  23.2282410
   9.4325660  20.5426490  26.0054390   8.4828370  20.5090030  26.1199380
   9.6138670  21.4526600  25.7704160   8.7435910  19.7159970  18.4227250
   9.2395030  19.4830840  19.2076130   8.5451980  18.8771810  18.0064890
  10.1723070  18.3520920  20.9564930  10.0622350  18.1976960  21.8947200
  10.9330660  17.8241860  20.7140340   8.5188790  14.2915050  27.4147930
   9.1561010  14.9049190  27.7807120   8.6663680  14.3275710  26.4697160
  11.0613340  16.1828840  14.1971070  11.9862650  16.0510020  13.9889360
  11.0389130  16.2621660  15.1507520  11.1351830  16.9539500  16.8227780
  10.3403330  16.8884620  17.3520690  11.3395110  17.8890140  16.8113130
   8.0770250  30.9931050  20.8166170   8.6729320  30.6715620  20.1400590
   8.3348400  30.5202870  21.6079440   1.8893270  15.4441240  30.3223030
   1.8282160  16.0363070  31.0718440   2.8293650  15.3367200  30.1773290
   4.5267830  15.1011300  29.9615320   5.1408240  15.4190590  29.2996400
   5.0717390  14.6159890  30.5811180  10.9443010  31.0002930  27.3677160
  10.4501290  31.3971800  26.6504290  10.3356300  30.3752140  27.7614440
   5.2675870  13.6643440  26.2884610   4.3935710  13.9978550  26.0857540
   5.1586620  13.1916620  27.1136480   6.1747850  15.8714310  27.6726330
   5.8461210  15.0566070  27.2928060   7.1230150  15.8284120  27.5492020
   8.6282460  31.6426350  24.6463900   8.1685430  32.3942160  24.2721920
   7.9994920  30.9232820  24.5878700   1.7973680  30.8423080  24.6481010
   2.0851490  30.5877380  23.7714020   2.3096900  30.2900440  25.2386580
   3.0150690  14.5813280  25.2277520   2.2322480  15.0558780  25.5074280
   2.7213620  13.6768110  25.1190700   7.5671760  15.2836380  23.2726610
   8.0079850  15.2281480  22.4248210   7.2979350  16.1994390  23.3436790
   9.4310330  14.9151620  21.2835430   9.3698730  13.9712840  21.1366450
  10.2102360  15.0231710  21.8288890   5.4029890  13.6642480  21.9776620
   6.0059260  14.2362690  22.4525140   4.6622880  14.2281920  21.7550520
   8.5464490  14.0664040  17.2516900   8.7415120  14.9647490  17.5184330
   7.7594360  13.8351120  17.7449850   1.8646040  31.7639180  32.0149210
   2.7913350  31.5283450  32.0585170   1.8496470  32.5911180  31.5335240
  10.0991100  31.3064750  19.0123460  10.2743290  30.6202490  18.3684380
   9.4012670  31.8311800  18.6200130   5.6525110  13.8437510  32.3571560
   5.5390560  14.1632120  33.2523080   6.4694850  14.2450020  32.0608840
   8.4323600  30.9909040  31.8390250   9.2248920  30.4958270  31.6316210
   8.7256750  31.6699180  32.4465860   4.5583260  21.8629980   2.7206300
   4.4777310  20.9484590   2.4498010   4.1447680  22.3597050   2.0146010
   2.6901300  23.6409000   4.6015570   1.9143400  23.1609440   4.8914140
   3.3414230  22.9614650   4.4271730   6.7108730  28.0469190   3.3814700
   6.2490260  27.2756430   3.7101870   7.5234280  28.0735260   3.8867150
   2.9372040  30.3327200   3.0018690   2.3183480  30.7884700   2.4313130
   3.7923820  30.4878660   2.6008390   2.1310290  26.3166190   4.6085730
   2.0618570  25.3756130   4.4474860   2.8930150  26.4067600   5.1808300
   3.1615460  19.1236570   4.8354660   3.5380280  18.2508450   4.7228330
   3.0634970  19.4595270   3.9445100   6.9439580  16.6187010   1.7683000
   7.7649200  16.1283580   1.8108480   6.9773660  17.2084670   2.5214840
  11.2339130  18.6353760   8.3326630  10.5291300  19.0235470   7.8141740
  11.4997050  19.3304050   8.9347560   7.1801060  18.5587390   4.5410540
   6.4756630  18.8472280   5.1213650   7.5413220  19.3687500   4.1810100
   8.7963840  28.1762520   6.8038020   8.1127360  28.8461630   6.7954690
   9.3358130  28.3743170   6.0382880  10.2487980  18.0042180   4.9319750
   9.3012890  18.0381160   5.0635180  10.5737970  18.8181130   5.3169110
   6.3322580  30.0206650   5.5183200   6.3449740  29.6168940   4.6505460
   5.7797800  30.7953940   5.4144630   5.7308020  24.9236490   6.8465810
   6.1476810  24.7096600   6.0119270   6.4547840  25.1809280   7.4174430
   9.6770120  23.3223710   6.9382050   8.8488750  23.3916800   6.4632180
  10.2720600  23.9078020   6.4697880   6.6412130  20.1093030   7.8836920
   6.2283310  20.9346740   8.1376910   5.9088080  19.5238070   7.6913280
   7.3312230  30.1552360   8.5717900   6.8542790  30.9624550   8.3790510
   6.6474020  29.5030690   8.7244110  10.9111440  29.9164300  13.6409290
  11.3871160  30.3947190  14.3198370  11.5318600  29.8481790  12.9154790
  10.3144690  27.1077150  10.8009300  10.4407750  26.8689030   9.8826480
  10.3566070  26.2761690  11.2731380   4.1761430  30.8105150   9.3704110
   4.6906100  30.7213160  10.1726540   3.3330510  31.1564850   9.6632020
  10.1668700  19.1609610  11.7659040   9.5512970  19.6689280  11.2374500
   9.8465120  18.2607940  11.7084980   2.2283020  18.0001500   9.2321230
   1.7662390  18.2084520  10.0441170   1.8261130  17.1860850   8.9291900
   7.2287530  19.2210450  10.3617890   6.3781120  18.9216200  10.6826960
   7.0689320  19.4652460   9.4501710   4.3237240  20.7212200  12.4616680
   4.6490650  19.8875950  12.1218910   5.1117570  21.2440720  12.6095010
   4.1545200  21.4899210   6.0811870   3.4226320  21.9986020   6.4301970
   3.7569540  20.6729190   5.7800650   4.6171110  16.9432890   5.4934810
   4.6343850  17.3941540   6.3376660   4.3686690  16.0438530   5.7068250
   8.0441860  14.3565070  11.3321190   8.3687630  13.6254730  11.8579170
   8.0798370  14.0378710  10.4302180   7.9699700  24.4690180   4.9407220
   8.6898820  24.9645470   4.5503330   7.7681520  23.7908070   4.2961090
   3.3518500  24.5399240  10.8276220   3.2855810  23.6194910  10.5733810
   2.7223640  24.6374680  11.5420860   3.2835230  27.3619810  10.5780020
   3.2979770  26.4300770  10.3598930   2.5760330  27.4479570  11.2169790
   9.4946440  24.0027150   9.9248600   8.7694630  24.5955930   9.7277990
  10.0221900  23.9950690   9.1261970   5.0246030  25.7287320   3.4232450
   5.3769850  25.1315450   2.7633820   4.1408360  25.4031550   3.5940700
   2.7169130  29.0037380   7.6720520   3.3611350  29.2096760   8.3493940
   3.0798570  28.2425780   7.2191370   3.9901210  27.0069730   6.3897970
   4.6323440  26.3062890   6.5030140   4.5150560  27.7868170   6.2094860
   5.7638830  27.8064630   9.5934030   6.0995070  28.3931320  10.2711950
   4.8439170  27.6757340   9.8231820   4.8081010  18.0882120   8.1258890
   5.1761830  17.2677330   8.4538460   3.9479210  18.1484010   8.5414540
   1.7683000  20.7421710   8.3496860   2.2668250  21.2167530   9.0148710
   1.9105950  19.8185230   8.5566890   8.9749860  16.9589670   9.1925250
   8.4723460  17.6995070   9.5319060   9.7906520  17.3473670   8.8762040
   7.2671870  22.2022850   2.6386610   6.3262010  22.2173080   2.8134300
   7.5815940  21.4158810   3.0846910   9.2697450  29.3731700   4.3140870
   9.3944870  30.1962870   4.7864680  10.1363010  29.1622430   3.9665020
   4.5837890  26.7588850  13.1218990   3.9776050  26.7820450  12.3814740
   4.2792000  26.0271890  13.6586240   6.0138260  30.4869140  11.7328400
   6.9660010  30.4027160  11.6828640   5.8666480  31.1510850  12.4062190
   7.6632360  26.2758760  12.2090170   8.4041830  26.6134520  11.7057630
   6.9005040  26.4450820  11.6559940   6.3378020  24.3273590  10.7445380
   6.7519040  24.4818670  11.5935800   5.4029020  24.4528810  10.9071160
   6.8100190  21.6669750  12.7484530   7.3920960  20.9122070  12.6605010
   6.9861960  22.1977190  11.9716010   3.4357150  22.0110250  10.0979150
   3.5553360  21.4151390  10.8373990   4.2951150  22.0479940   9.6780450
   5.7745050  22.5647440   8.6741660   5.2480270  23.0890060   8.0706800
   6.1176390  23.1974830   9.3051390   5.0219350  18.1697410  11.5887990
   4.3334870  17.5078950  11.5237980   5.7425370  17.7235680  12.0336450
   9.3342560  29.5160470  10.4178250   8.7344550  29.5753030   9.6742170
   9.4636460  28.5765450  10.5475100  11.0360440  24.8575870   3.1024090
  11.4069270  24.0743190   2.6960060  11.6762370  25.5464970   2.9241390
   8.0194200  26.2412450   8.5154410   7.2054040  26.6709610   8.7780200
   8.4268400  26.8530860   7.9023460   9.3684600  21.3800650  10.0423630
   9.1370690  21.1513400   9.1421580   9.6289150  22.3000200   9.9968520
   7.8072670  16.6057080  12.8203330   8.6842850  16.6140480  13.2037330
   7.8193510  15.8687920  12.2095680   9.2535940  20.4586620   3.7091350
   9.7773420  19.9649270   3.0781520   9.8395360  20.5936980   4.4538920
   9.4325660  20.5426490   7.2310900   8.4828370  20.5090030   7.3455890
   9.6138670  21.4526600   6.9960670  10.1723070  18.3520920   2.1821440
  10.0622350  18.1976960   3.1203710  10.9330660  17.8241860   1.9396850
   8.5188790  14.2915050   8.6404440   9.1561010  14.9049190   9.0063630
   8.6663680  14.3275710   7.6953670   1.8893270  15.4441240  11.5479540
   1.8282160  16.0363070  12.2974950   2.8293650  15.3367200  11.4029800
   4.5267830  15.1011300  11.1871830   5.1408240  15.4190590  10.5252910
   5.0717390  14.6159890  11.8067690  10.9443010  31.0002930   8.5933670
  10.4501290  31.3971800   7.8760800  10.3356300  30.3752140   8.9870950
   5.2675870  13.6643440   7.5141120   4.3935710  13.9978550   7.3114050
   5.1586620  13.1916620   8.3392990   6.1747850  15.8714310   8.8982840
   5.8461210  15.0566070   8.5184570   7.1230150  15.8284120   8.7748530
   8.6282460  31.6426350   5.8720410   8.1685430  32.3942160   5.4978430
   7.9994920  30.9232820   5.8135210   1.7973680  30.8423080   5.8737520
   2.0851490  30.5877380   4.9970530   2.3096900  30.2900440   6.4643090
   3.0150690  14.5813280   6.4534030   2.2322480  15.0558780   6.7330790
   2.7213620  13.6768110   6.3447210   7.5671760  15.2836380   4.4983120
   8.0079850  15.2281480   3.6504720   7.2979350  16.1994390   4.5693300
   9.4310330  14.9151620   2.5091940   9.3698730  13.9712840   2.3622960
  10.2102360  15.0231710   3.0545400   5.4029890  13.6642480   3.2033130
   6.0059260  14.2362690   3.6781650   4.6622880  14.2281920   2.9807030
   1.8646040  31.7639180  13.2405720   2.7913350  31.5283450  13.2841680
   1.8496470  32.5911180  12.7591750   5.6525110  13.8437510  13.5828070
   5.5390560  14.1632120  14.4779590   6.4694850  14.2450020  13.2865350
   8.4323600  30.9909040  13.0646760   9.2248920  30.4958270  12.8572720
   8.7256750  31.6699180  13.6722370   4.5583260   3.0886490  77.8180260
   4.4777310   2.1741100  77.5471970   4.1447680   3.5853560  77.1119970
   2.6901300   4.8665510  79.6989530   1.9143400   4.3865950  79.9888100
   3.3414230   4.1871160  79.5245690   6.7108730   9.2725700  78.4788660
   6.2490260   8.5012940  78.8075830   7.5234280   9.2991770  78.9841110
   2.9372040  11.5583710  78.0992650   2.3183480  12.0141210  77.5287090
   3.7923820  11.7135170  77.6982350   2.1310290   7.5422700  79.7059690
   2.0618570   6.6012640  79.5448820   2.8930150   7.6324110  80.2782260
   3.8035390   6.4422950  75.4924560   3.1852660   6.9072400  74.9287280
   4.3158640   7.1350430  75.9094070   8.7963840   9.4019030  81.9011980
   8.1127360  10.0718140  81.8928650   9.3358130   9.5999680  81.1356840
   6.3322580  11.2463160  80.6157160   6.3449740  10.8425450  79.7479420
   5.7797800  12.0210450  80.5118590   7.6268000   7.9679380  75.7047330
   7.5164330   7.0253710  75.8296750   7.6236250   8.3295020  76.5910090
   3.1688280   3.5944700  75.0609820   2.2417560   3.5282080  75.2898290
   3.3213100   4.5324830  74.9465060   9.6770120   4.5480220  82.0356010
   8.8488750   4.6173310  81.5606140  10.2720600   5.1334530  81.5671840
   7.1985570   5.1565000  75.5645070   6.5797990   4.8184550  74.9171370
   7.1810020   4.5124760  76.2724260   5.3750270   4.3951810  72.5717820
   5.8143550   3.5574240  72.4255640   6.0878690   5.0281210  72.6581960
   3.4845650   9.3347880  76.5399060   3.9241560  10.0772210  76.1254450
   3.4232540   9.5774450  77.4638020   6.1515830  12.3217000  73.8962070
   5.9916970  12.0319940  74.7943900   5.9862540  11.5457130  73.3607300
   5.8541960   9.8304560  72.4560070   5.1607120   9.8281850  71.7962350
   6.5964820   9.4063880  72.0254240   5.4191890  11.4567270  76.5308560
   5.8748840  10.6756650  76.8447180   5.7584410  12.1674090  77.0749740
   4.1545200   2.7155720  81.1785830   3.4226320   3.2242530  81.5275930
   3.7569540   1.8985700  80.8774610   7.9699700   5.6946690  80.0381180
   8.6898820   6.1901980  79.6477290   7.7681520   5.0164580  79.3935050
   8.4172300   2.7716140  71.9452590   8.3336020   3.2030360  71.0949030
   9.1366490   3.2314490  72.3779410   9.4459550   9.6258400  74.6734720
   8.8035710   8.9714020  74.9478440   9.0590210  10.0313490  73.8975390
   5.0246030   6.9543830  78.5206410   5.3769850   6.3571960  77.8607780
   4.1408360   6.6288060  78.6914660   3.9901210   8.2326240  81.4871930
   4.6323440   7.5319400  81.6004100   4.5150560   9.0124680  81.3068820
   7.8356930   8.5174860  71.2111070   7.6094510   7.8005300  71.8035710
   7.4453130   8.2687300  70.3732820   7.4173180   6.4346800  72.8725230
   7.1294880   6.8959490  73.6603110   8.2125350   5.9744570  73.1409450
   2.6201180   9.9901160  71.4654390   2.7213160   9.7865150  70.5356370
   1.7202920   9.7359440  71.6702170   7.2671870   3.4279360  77.7360570
   6.3262010   3.4429590  77.9108260   7.5815940   2.6415320  78.1820870
   9.2697450  10.5988210  79.4114830   9.3944870  11.4219380  79.8838640
  10.1363010  10.3878940  79.0638980   8.9047460  11.0919860  72.3294270
   8.6188970  10.6785000  71.5148450   8.7067010  12.0207570  72.2094790
   3.6097420   6.1473170  71.3741870   3.0607520   6.5942470  72.0184610
   4.2316680   5.6422420  71.8979540   1.7900180   4.1301700  70.5184270
   2.3105840   3.4150720  70.1525420   2.4368580   4.7687570  70.8184780
   2.3548210  12.2113310  72.8086010   3.2499000  12.5498280  72.8304770
   2.3865840  11.4892720  72.1810290  10.5744010   8.4834800  70.8521920
   9.7436970   8.5511450  71.3229150  10.7515840   9.3738920  70.5488780
  10.0300470   5.2282280  73.3556120  10.7919380   5.7978930  73.4615810
  10.0454840   4.6609480  74.1264430  11.0360440   6.0832380  78.1998050
  11.4069270   5.2999700  77.7934020  11.6762370   6.7721480  78.0215350
  10.0819640   5.5216650  70.5128640  10.3568480   6.4295530  70.3847860
   9.8930380   5.4579180  71.4490630   9.9784980   3.4585640  75.5058070
   9.6028580   2.6913570  75.0739360   9.2488100   3.8408340  75.9933000
   8.0770250  12.2187560  77.1396640   8.6729320  11.8972130  76.4631060
   8.3348400  11.7459380  77.9309910   8.6282460  12.8682860  80.9694370
   8.1685430  13.6198670  80.5952390   7.9994920  12.1489330  80.9109170
   1.7973680  12.0679590  80.9711480   2.0851490  11.8133890  80.0944490
   2.3096900  11.5156950  81.5617050  10.0991100  12.5321260  75.3353930
  10.2743290  11.8459000  74.6914850   9.4012670  13.0568310  74.9430600
   4.5583260   3.0886490  59.0436770   4.4777310   2.1741100  58.7728480
   4.1447680   3.5853560  58.3376480   2.6901300   4.8665510  60.9246040
   1.9143400   4.3865950  61.2144610   3.3414230   4.1871160  60.7502200
   6.7108730   9.2725700  59.7045170   6.2490260   8.5012940  60.0332340
   7.5234280   9.2991770  60.2097620   2.9372040  11.5583710  59.3249160
   2.3183480  12.0141210  58.7543600   3.7923820  11.7135170  58.9238860
   2.1310290   7.5422700  60.9316200   2.0618570   6.6012640  60.7705330
   2.8930150   7.6324110  61.5038770   3.8035390   6.4422950  56.7181070
   3.1852660   6.9072400  56.1543790   4.3158640   7.1350430  57.1350580
   8.7963840   9.4019030  63.1268490   8.1127360  10.0718140  63.1185160
   9.3358130   9.5999680  62.3613350   6.3322580  11.2463160  61.8413670
   6.3449740  10.8425450  60.9735930   5.7797800  12.0210450  61.7375100
   7.6268000   7.9679380  56.9303840   7.5164330   7.0253710  57.0553260
   7.6236250   8.3295020  57.8166600   5.7308020   6.1493000  63.1696280
   6.1476810   5.9353110  62.3349740   6.4547840   6.4065790  63.7404900
   3.1688280   3.5944700  56.2866330   2.2417560   3.5282080  56.5154800
   3.3213100   4.5324830  56.1721570   9.6770120   4.5480220  63.2612520
   8.8488750   4.6173310  62.7862650  10.2720600   5.1334530  62.7928350
   7.1985570   5.1565000  56.7901580   6.5797990   4.8184550  56.1427880
   7.1810020   4.5124760  57.4980770   7.3312230  11.3808870  64.8948370
   6.8542790  12.1881060  64.7020980   6.6474020  10.7287200  65.0474580
   5.3750270   4.3951810  53.7974330   5.8143550   3.5574240  53.6512150
   6.0878690   5.0281210  53.8838470   3.4845650   9.3347880  57.7655570
   3.9241560  10.0772210  57.3510960   3.4232540   9.5774450  58.6894530
  10.9111440  11.1420810  69.9639760  11.3871160  11.6203700  70.6428840
  11.5318600  11.0738300  69.2385260  10.3144690   8.3333660  67.1239770
  10.4407750   8.0945540  66.2056950  10.3566070   7.5018200  67.5961850
   4.1761430  12.0361660  65.6934580   4.6906100  11.9469670  66.4957010
   3.3330510  12.3821360  65.9862490   6.1515830  12.3217000  55.1218580
   5.9916970  12.0319940  56.0200410   5.9862540  11.5457130  54.5863810
   5.8541960   9.8304560  53.6816580   5.1607120   9.8281850  53.0218860
   6.5964820   9.4063880  53.2510750   5.4191890  11.4567270  57.7565070
   5.8748840  10.6756650  58.0703690   5.7584410  12.1674090  58.3006250
   4.1545200   2.7155720  62.4042340   3.4226320   3.2242530  62.7532440
   3.7569540   1.8985700  62.1031120   7.9699700   5.6946690  61.2637690
   8.6898820   6.1901980  60.8733800   7.7681520   5.0164580  60.6191560
   3.3518500   5.7655750  67.1506690   3.2855810   4.8451420  66.8964280
   2.7223640   5.8631190  67.8651330   3.2835230   8.5876320  66.9010490
   3.2979770   7.6557280  66.6829400   2.5760330   8.6736080  67.5400260
   8.4172300   2.7716140  53.1709100   8.3336020   3.2030360  52.3205540
   9.1366490   3.2314490  53.6035920   9.4946440   5.2283660  66.2479070
   8.7694630   5.8212440  66.0508460  10.0221900   5.2207200  65.4492440
   9.4459550   9.6258400  55.8991230   8.8035710   8.9714020  56.1734950
   9.0590210  10.0313490  55.1231900   5.0246030   6.9543830  59.7462920
   5.3769850   6.3571960  59.0864290   4.1408360   6.6288060  59.9171170
   2.7169130  10.2293890  63.9950990   3.3611350  10.4353270  64.6724410
   3.0798570   9.4682290  63.5421840   3.9901210   8.2326240  62.7128440
   4.6323440   7.5319400  62.8260610   4.5150560   9.0124680  62.5325330
   7.8356930   8.5174860  52.4367580   7.6094510   7.8005300  53.0292220
   7.4453130   8.2687300  51.5989330   5.7638830   9.0321140  65.9164500
   6.0995070   9.6187830  66.5942420   4.8439170   8.9013850  66.1462290
   7.4173180   6.4346800  54.0981740   7.1294880   6.8959490  54.8859620
   8.2125350   5.9744570  54.3665960   2.6201180   9.9901160  52.6910900
   2.7213160   9.7865150  51.7612880   1.7202920   9.7359440  52.8958680
   7.2671870   3.4279360  58.9617080   6.3262010   3.4429590  59.1364770
   7.5815940   2.6415320  59.4077380   9.2697450  10.5988210  60.6371340
   9.3944870  11.4219380  61.1095150  10.1363010  10.3878940  60.2895490
   4.5837890   7.9845360  69.4449460   3.9776050   8.0076960  68.7045210
   4.2792000   7.2528400  69.9816710   6.0138260  11.7125650  68.0558870
   6.9660010  11.6283670  68.0059110   5.8666480  12.3767360  68.7292660
   8.9047460  11.0919860  53.5550780   8.6188970  10.6785000  52.7404960
   8.7067010  12.0207570  53.4351300   3.6097420   6.1473170  52.5998380
   3.0607520   6.5942470  53.2441120   4.2316680   5.6422420  53.1236050
   7.6632360   7.5015270  68.5320640   8.4041830   7.8391030  68.0288100
   6.9005040   7.6707330  67.9790410   1.7900180   4.1301700  51.7440780
   2.3105840   3.4150720  51.3781930   2.4368580   4.7687570  52.0441290
   6.3378020   5.5530100  67.0675850   6.7519040   5.7075180  67.9166270
   5.4029020   5.6785320  67.2301630   6.8100190   2.8926260  69.0715000
   7.3920960   2.1378580  68.9835480   6.9861960   3.4233700  68.2946480
   3.4357150   3.2366760  66.4209620   3.5553360   2.6407900  67.1604460
   4.2951150   3.2736450  66.0010920   5.7745050   3.7903950  64.9972130
   5.2480270   4.3146570  64.3937270   6.1176390   4.4231340  65.6281860
   2.3548210  12.2113310  54.0342520   3.2499000  12.5498280  54.0561280
   2.3865840  11.4892720  53.4066800   9.3342560  10.7416980  66.7408720
   8.7344550  10.8009540  65.9972640   9.4636460   9.8021960  66.8705570
  10.5744010   8.4834800  52.0778430   9.7436970   8.5511450  52.5485660
  10.7515840   9.3738920  51.7745290  10.0300470   5.2282280  54.5812630
  10.7919380   5.7978930  54.6872320  10.0454840   4.6609480  55.3520940
  11.0360440   6.0832380  59.4254560  11.4069270   5.2999700  59.0190530
  11.6762370   6.7721480  59.2471860   8.0194200   7.4668960  64.8384880
   7.2054040   7.8966120  65.1010670   8.4268400   8.0787370  64.2253930
  10.0819640   5.5216650  51.7385150  10.3568480   6.4295530  51.6104370
   9.8930380   5.4579180  52.6747140   9.9784980   3.4585640  56.7314580
   9.6028580   2.6913570  56.2995870   9.2488100   3.8408340  57.2189510
   9.3684600   2.6057160  66.3654100   9.1370690   2.3769910  65.4652050
   9.6289150   3.5256710  66.3198990   9.4325660   1.7683000  63.5541370
   8.4828370   1.7346540  63.6686360   9.6138670   2.6783110  63.3191140
   8.0770250  12.2187560  58.3653150   8.6729320  11.8972130  57.6887570
   8.3348400  11.7459380  59.1566420  10.9443010  12.2259440  64.9164140
  10.4501290  12.6228310  64.1991270  10.3356300  11.6008650  65.3101420
   8.6282460  12.8682860  62.1950880   8.1685430  13.6198670  61.8208900
   7.9994920  12.1489330  62.1365680   1.7973680  12.0679590  62.1967990
   2.0851490  11.8133890  61.3201000   2.3096900  11.5156950  62.7873560
   1.8646040  12.9895690  69.5636190   2.7913350  12.7539960  69.6072150
   1.8496470  13.8167690  69.0822220  10.0991100  12.5321260  56.5610440
  10.2743290  11.8459000  55.9171360   9.4012670  13.0568310  56.1687110
   8.4323600  12.2165550  69.3877230   9.2248920  11.7214780  69.1803190
   8.7256750  12.8955690  69.9952840   4.5583260   3.0886490  40.2693280
   4.4777310   2.1741100  39.9984990   4.1447680   3.5853560  39.5632990
   2.6901300   4.8665510  42.1502550   1.9143400   4.3865950  42.4401120
   3.3414230   4.1871160  41.9758710   6.7108730   9.2725700  40.9301680
   6.2490260   8.5012940  41.2588850   7.5234280   9.2991770  41.4354130
   2.9372040  11.5583710  40.5505670   2.3183480  12.0141210  39.9800110
   3.7923820  11.7135170  40.1495370   2.1310290   7.5422700  42.1572710
   2.0618570   6.6012640  41.9961840   2.8930150   7.6324110  42.7295280
   3.8035390   6.4422950  37.9437580   3.1852660   6.9072400  37.3800300
   4.3158640   7.1350430  38.3607090   8.7963840   9.4019030  44.3525000
   8.1127360  10.0718140  44.3441670   9.3358130   9.5999680  43.5869860
   6.3322580  11.2463160  43.0670180   6.3449740  10.8425450  42.1992440
   5.7797800  12.0210450  42.9631610   7.6268000   7.9679380  38.1560350
   7.5164330   7.0253710  38.2809770   7.6236250   8.3295020  39.0423110
   5.7308020   6.1493000  44.3952790   6.1476810   5.9353110  43.5606250
   6.4547840   6.4065790  44.9661410   3.1688280   3.5944700  37.5122840
   2.2417560   3.5282080  37.7411310   3.3213100   4.5324830  37.3978080
   9.6770120   4.5480220  44.4869030   8.8488750   4.6173310  44.0119160
  10.2720600   5.1334530  44.0184860   7.1985570   5.1565000  38.0158090
   6.5797990   4.8184550  37.3684390   7.1810020   4.5124760  38.7237280
   7.3312230  11.3808870  46.1204880   6.8542790  12.1881060  45.9277490
   6.6474020  10.7287200  46.2731090   5.3750270   4.3951810  35.0230840
   5.8143550   3.5574240  34.8768660   6.0878690   5.0281210  35.1094980
   3.4845650   9.3347880  38.9912080   3.9241560  10.0772210  38.5767470
   3.4232540   9.5774450  39.9151040  10.9111440  11.1420810  51.1896270
  11.3871160  11.6203700  51.8685350  11.5318600  11.0738300  50.4641770
  10.3144690   8.3333660  48.3496280  10.4407750   8.0945540  47.4313460
  10.3566070   7.5018200  48.8218360   4.1761430  12.0361660  46.9191090
   4.6906100  11.9469670  47.7213520   3.3330510  12.3821360  47.2119000
   6.1515830  12.3217000  36.3475090   5.9916970  12.0319940  37.2456920
   5.9862540  11.5457130  35.8120320   5.8541960   9.8304560  34.9073090
   5.1607120   9.8281850  34.2475370   6.5964820   9.4063880  34.4767260
   5.4191890  11.4567270  38.9821580   5.8748840  10.6756650  39.2960200
   5.7584410  12.1674090  39.5262760   4.1545200   2.7155720  43.6298850
   3.4226320   3.2242530  43.9788950   3.7569540   1.8985700  43.3287630
   7.9699700   5.6946690  42.4894200   8.6898820   6.1901980  42.0990310
   7.7681520   5.0164580  41.8448070   3.3518500   5.7655750  48.3763200
   3.2855810   4.8451420  48.1220790   2.7223640   5.8631190  49.0907840
   3.2835230   8.5876320  48.1267000   3.2979770   7.6557280  47.9085910
   2.5760330   8.6736080  48.7656770   8.4172300   2.7716140  34.3965610
   8.3336020   3.2030360  33.5462050   9.1366490   3.2314490  34.8292430
   9.4946440   5.2283660  47.4735580   8.7694630   5.8212440  47.2764970
  10.0221900   5.2207200  46.6748950   9.4459550   9.6258400  37.1247740
   8.8035710   8.9714020  37.3991460   9.0590210  10.0313490  36.3488410
   5.0246030   6.9543830  40.9719430   5.3769850   6.3571960  40.3120800
   4.1408360   6.6288060  41.1427680   2.7169130  10.2293890  45.2207500
   3.3611350  10.4353270  45.8980920   3.0798570   9.4682290  44.7678350
   3.9901210   8.2326240  43.9384950   4.6323440   7.5319400  44.0517120
   4.5150560   9.0124680  43.7581840   7.8356930   8.5174860  33.6624090
   7.6094510   7.8005300  34.2548730   7.4453130   8.2687300  32.8245840
   5.7638830   9.0321140  47.1421010   6.0995070   9.6187830  47.8198930
   4.8439170   8.9013850  47.3718800   7.4173180   6.4346800  35.3238250
   7.1294880   6.8959490  36.1116130   8.2125350   5.9744570  35.5922470
   2.6201180   9.9901160  33.9167410   2.7213160   9.7865150  32.9869390
   1.7202920   9.7359440  34.1215190   7.2671870   3.4279360  40.1873590
   6.3262010   3.4429590  40.3621280   7.5815940   2.6415320  40.6333890
   9.2697450  10.5988210  41.8627850   9.3944870  11.4219380  42.3351660
  10.1363010  10.3878940  41.5152000   4.5837890   7.9845360  50.6705970
   3.9776050   8.0076960  49.9301720   4.2792000   7.2528400  51.2073220
   6.0138260  11.7125650  49.2815380   6.9660010  11.6283670  49.2315620
   5.8666480  12.3767360  49.9549170   8.9047460  11.0919860  34.7807290
   8.6188970  10.6785000  33.9661470   8.7067010  12.0207570  34.6607810
   3.6097420   6.1473170  33.8254890   3.0607520   6.5942470  34.4697630
   4.2316680   5.6422420  34.3492560   7.6632360   7.5015270  49.7577150
   8.4041830   7.8391030  49.2544610   6.9005040   7.6707330  49.2046920
   1.7900180   4.1301700  32.9697290   2.3105840   3.4150720  32.6038440
   2.4368580   4.7687570  33.2697800   6.3378020   5.5530100  48.2932360
   6.7519040   5.7075180  49.1422780   5.4029020   5.6785320  48.4558140
   6.8100190   2.8926260  50.2971510   7.3920960   2.1378580  50.2091990
   6.9861960   3.4233700  49.5202990   3.4357150   3.2366760  47.6466130
   3.5553360   2.6407900  48.3860970   4.2951150   3.2736450  47.2267430
   5.7745050   3.7903950  46.2228640   5.2480270   4.3146570  45.6193780
   6.1176390   4.4231340  46.8538370   2.3548210  12.2113310  35.2599030
   3.2499000  12.5498280  35.2817790   2.3865840  11.4892720  34.6323310
   9.3342560  10.7416980  47.9665230   8.7344550  10.8009540  47.2229150
   9.4636460   9.8021960  48.0962080  10.5744010   8.4834800  33.3034940
   9.7436970   8.5511450  33.7742170  10.7515840   9.3738920  33.0001800
  10.0300470   5.2282280  35.8069140  10.7919380   5.7978930  35.9128830
  10.0454840   4.6609480  36.5777450  11.0360440   6.0832380  40.6511070
  11.4069270   5.2999700  40.2447040  11.6762370   6.7721480  40.4728370
   8.0194200   7.4668960  46.0641390   7.2054040   7.8966120  46.3267180
   8.4268400   8.0787370  45.4510440  10.0819640   5.5216650  32.9641660
  10.3568480   6.4295530  32.8360880   9.8930380   5.4579180  33.9003650
   9.9784980   3.4585640  37.9571090   9.6028580   2.6913570  37.5252380
   9.2488100   3.8408340  38.4446020   9.3684600   2.6057160  47.5910610
   9.1370690   2.3769910  46.6908560   9.6289150   3.5256710  47.5455500
   9.4325660   1.7683000  44.7797880   8.4828370   1.7346540  44.8942870
   9.6138670   2.6783110  44.5447650   8.0770250  12.2187560  39.5909660
   8.6729320  11.8972130  38.9144080   8.3348400  11.7459380  40.3822930
  10.9443010  12.2259440  46.1420650  10.4501290  12.6228310  45.4247780
  10.3356300  11.6008650  46.5357930   8.6282460  12.8682860  43.4207390
   8.1685430  13.6198670  43.0465410   7.9994920  12.1489330  43.3622190
   1.7973680  12.0679590  43.4224500   2.0851490  11.8133890  42.5457510
   2.3096900  11.5156950  44.0130070   1.8646040  12.9895690  50.7892700
   2.7913350  12.7539960  50.8328660   1.8496470  13.8167690  50.3078730
  10.0991100  12.5321260  37.7866950  10.2743290  11.8459000  37.1427870
   9.4012670  13.0568310  37.3943620   8.4323600  12.2165550  50.6133740
   9.2248920  11.7214780  50.4059700   8.7256750  12.8955690  51.2209350
   4.5583260   3.0886490  21.4949790   4.4777310   2.1741100  21.2241500
   4.1447680   3.5853560  20.7889500   2.6901300   4.8665510  23.3759060
   1.9143400   4.3865950  23.6657630   3.3414230   4.1871160  23.2015220
   6.7108730   9.2725700  22.1558190   6.2490260   8.5012940  22.4845360
   7.5234280   9.2991770  22.6610640   2.9372040  11.5583710  21.7762180
   2.3183480  12.0141210  21.2056620   3.7923820  11.7135170  21.3751880
   2.1310290   7.5422700  23.3829220   2.0618570   6.6012640  23.2218350
   2.8930150   7.6324110  23.9551790   3.8035390   6.4422950  19.1694090
   3.1852660   6.9072400  18.6056810   4.3158640   7.1350430  19.5863600
   8.7963840   9.4019030  25.5781510   8.1127360  10.0718140  25.5698180
   9.3358130   9.5999680  24.8126370   6.3322580  11.2463160  24.2926690
   6.3449740  10.8425450  23.4248950   5.7797800  12.0210450  24.1888120
   7.6268000   7.9679380  19.3816860   7.5164330   7.0253710  19.5066280
   7.6236250   8.3295020  20.2679620   5.7308020   6.1493000  25.6209300
   6.1476810   5.9353110  24.7862760   6.4547840   6.4065790  26.1917920
   3.1688280   3.5944700  18.7379350   2.2417560   3.5282080  18.9667820
   3.3213100   4.5324830  18.6234590   9.6770120   4.5480220  25.7125540
   8.8488750   4.6173310  25.2375670  10.2720600   5.1334530  25.2441370
   7.1985570   5.1565000  19.2414600   6.5797990   4.8184550  18.5940900
   7.1810020   4.5124760  19.9493790   7.3312230  11.3808870  27.3461390
   6.8542790  12.1881060  27.1534000   6.6474020  10.7287200  27.4987600
   5.3750270   4.3951810  16.2487350   5.8143550   3.5574240  16.1025170
   6.0878690   5.0281210  16.3351490   3.4845650   9.3347880  20.2168590
   3.9241560  10.0772210  19.8023980   3.4232540   9.5774450  21.1407550
  10.9111440  11.1420810  32.4152780  11.3871160  11.6203700  33.0941860
  11.5318600  11.0738300  31.6898280  10.3144690   8.3333660  29.5752790
  10.4407750   8.0945540  28.6569970  10.3566070   7.5018200  30.0474870
   4.1761430  12.0361660  28.1447600   4.6906100  11.9469670  28.9470030
   3.3330510  12.3821360  28.4375510   6.1515830  12.3217000  17.5731600
   5.9916970  12.0319940  18.4713430   5.9862540  11.5457130  17.0376830
   5.8541960   9.8304560  16.1329600   5.1607120   9.8281850  15.4731880
   6.5964820   9.4063880  15.7023770   5.4191890  11.4567270  20.2078090
   5.8748840  10.6756650  20.5216710   5.7584410  12.1674090  20.7519270
   4.1545200   2.7155720  24.8555360   3.4226320   3.2242530  25.2045460
   3.7569540   1.8985700  24.5544140   7.9699700   5.6946690  23.7150710
   8.6898820   6.1901980  23.3246820   7.7681520   5.0164580  23.0704580
   3.3518500   5.7655750  29.6019710   3.2855810   4.8451420  29.3477300
   2.7223640   5.8631190  30.3164350   3.2835230   8.5876320  29.3523510
   3.2979770   7.6557280  29.1342420   2.5760330   8.6736080  29.9913280
   8.4172300   2.7716140  15.6222120   8.3336020   3.2030360  14.7718560
   9.1366490   3.2314490  16.0548940   9.4946440   5.2283660  28.6992090
   8.7694630   5.8212440  28.5021480  10.0221900   5.2207200  27.9005460
   9.4459550   9.6258400  18.3504250   8.8035710   8.9714020  18.6247970
   9.0590210  10.0313490  17.5744920   5.0246030   6.9543830  22.1975940
   5.3769850   6.3571960  21.5377310   4.1408360   6.6288060  22.3684190
   2.7169130  10.2293890  26.4464010   3.3611350  10.4353270  27.1237430
   3.0798570   9.4682290  25.9934860   3.9901210   8.2326240  25.1641460
   4.6323440   7.5319400  25.2773630   4.5150560   9.0124680  24.9838350
   7.8356930   8.5174860  14.8880600   7.6094510   7.8005300  15.4805240
   7.4453130   8.2687300  14.0502350   5.7638830   9.0321140  28.3677520
   6.0995070   9.6187830  29.0455440   4.8439170   8.9013850  28.5975310
   7.4173180   6.4346800  16.5494760   7.1294880   6.8959490  17.3372640
   8.2125350   5.9744570  16.8178980   2.6201180   9.9901160  15.1423920
   2.7213160   9.7865150  14.2125900   1.7202920   9.7359440  15.3471700
   7.2671870   3.4279360  21.4130100   6.3262010   3.4429590  21.5877790
   7.5815940   2.6415320  21.8590400   9.2697450  10.5988210  23.0884360
   9.3944870  11.4219380  23.5608170  10.1363010  10.3878940  22.7408510
   4.5837890   7.9845360  31.8962480   3.9776050   8.0076960  31.1558230
   4.2792000   7.2528400  32.4329730   6.0138260  11.7125650  30.5071890
   6.9660010  11.6283670  30.4572130   5.8666480  12.3767360  31.1805680
   8.9047460  11.0919860  16.0063800   8.6188970  10.6785000  15.1917980
   8.7067010  12.0207570  15.8864320   3.6097420   6.1473170  15.0511400
   3.0607520   6.5942470  15.6954140   4.2316680   5.6422420  15.5749070
   7.6632360   7.5015270  30.9833660   8.4041830   7.8391030  30.4801120
   6.9005040   7.6707330  30.4303430   1.7900180   4.1301700  14.1953800
   2.3105840   3.4150720  13.8294950   2.4368580   4.7687570  14.4954310
   6.3378020   5.5530100  29.5188870   6.7519040   5.7075180  30.3679290
   5.4029020   5.6785320  29.6814650   6.8100190   2.8926260  31.5228020
   7.3920960   2.1378580  31.4348500   6.9861960   3.4233700  30.7459500
   3.4357150   3.2366760  28.8722640   3.5553360   2.6407900  29.6117480
   4.2951150   3.2736450  28.4523940   5.7745050   3.7903950  27.4485150
   5.2480270   4.3146570  26.8450290   6.1176390   4.4231340  28.0794880
   2.3548210  12.2113310  16.4855540   3.2499000  12.5498280  16.5074300
   2.3865840  11.4892720  15.8579820   9.3342560  10.7416980  29.1921740
   8.7344550  10.8009540  28.4485660   9.4636460   9.8021960  29.3218590
  10.5744010   8.4834800  14.5291450   9.7436970   8.5511450  14.9998680
  10.7515840   9.3738920  14.2258310  10.0300470   5.2282280  17.0325650
  10.7919380   5.7978930  17.1385340  10.0454840   4.6609480  17.8033960
  11.0360440   6.0832380  21.8767580  11.4069270   5.2999700  21.4703550
  11.6762370   6.7721480  21.6984880   8.0194200   7.4668960  27.2897900
   7.2054040   7.8966120  27.5523690   8.4268400   8.0787370  26.6766950
  10.0819640   5.5216650  14.1898170  10.3568480   6.4295530  14.0617390
   9.8930380   5.4579180  15.1260160   9.9784980   3.4585640  19.1827600
   9.6028580   2.6913570  18.7508890   9.2488100   3.8408340  19.6702530
   9.3684600   2.6057160  28.8167120   9.1370690   2.3769910  27.9165070
   9.6289150   3.5256710  28.7712010   9.4325660   1.7683000  26.0054390
   8.4828370   1.7346540  26.1199380   9.6138670   2.6783110  25.7704160
   8.0770250  12.2187560  20.8166170   8.6729320  11.8972130  20.1400590
   8.3348400  11.7459380  21.6079440  10.9443010  12.2259440  27.3677160
  10.4501290  12.6228310  26.6504290  10.3356300  11.6008650  27.7614440
   8.6282460  12.8682860  24.6463900   8.1685430  13.6198670  24.2721920
   7.9994920  12.1489330  24.5878700   1.7973680  12.0679590  24.6481010
   2.0851490  11.8133890  23.7714020   2.3096900  11.5156950  25.2386580
   1.8646040  12.9895690  32.0149210   2.7913350  12.7539960  32.0585170
   1.8496470  13.8167690  31.5335240  10.0991100  12.5321260  19.0123460
  10.2743290  11.8459000  18.3684380   9.4012670  13.0568310  18.6200130
   8.4323600  12.2165550  31.8390250   9.2248920  11.7214780  31.6316210
   8.7256750  12.8955690  32.4465860   4.5583260   3.0886490   2.7206300
   4.4777310   2.1741100   2.4498010   4.1447680   3.5853560   2.0146010
   2.6901300   4.8665510   4.6015570   1.9143400   4.3865950   4.8914140
   3.3414230   4.1871160   4.4271730   6.7108730   9.2725700   3.3814700
   6.2490260   8.5012940   3.7101870   7.5234280   9.2991770   3.8867150
   2.9372040  11.5583710   3.0018690   2.3183480  12.0141210   2.4313130
   3.7923820  11.7135170   2.6008390   2.1310290   7.5422700   4.6085730
   2.0618570   6.6012640   4.4474860   2.8930150   7.6324110   5.1808300
   8.7963840   9.4019030   6.8038020   8.1127360  10.0718140   6.7954690
   9.3358130   9.5999680   6.0382880   6.3322580  11.2463160   5.5183200
   6.3449740  10.8425450   4.6505460   5.7797800  12.0210450   5.4144630
   5.7308020   6.1493000   6.8465810   6.1476810   5.9353110   6.0119270
   6.4547840   6.4065790   7.4174430   9.6770120   4.5480220   6.9382050
   8.8488750   4.6173310   6.4632180  10.2720600   5.1334530   6.4697880
   7.3312230  11.3808870   8.5717900   6.8542790  12.1881060   8.3790510
   6.6474020  10.7287200   8.7244110  10.9111440  11.1420810  13.6409290
  11.3871160  11.6203700  14.3198370  11.5318600  11.0738300  12.9154790
  10.3144690   8.3333660  10.8009300  10.4407750   8.0945540   9.8826480
  10.3566070   7.5018200  11.2731380   4.1761430  12.0361660   9.3704110
   4.6906100  11.9469670  10.1726540   3.3330510  12.3821360   9.6632020
   4.1545200   2.7155720   6.0811870   3.4226320   3.2242530   6.4301970
   3.7569540   1.8985700   5.7800650   7.9699700   5.6946690   4.9407220
   8.6898820   6.1901980   4.5503330   7.7681520   5.0164580   4.2961090
   3.3518500   5.7655750  10.8276220   3.2855810   4.8451420  10.5733810
   2.7223640   5.8631190  11.5420860   3.2835230   8.5876320  10.5780020
   3.2979770   7.6557280  10.3598930   2.5760330   8.6736080  11.2169790
   9.4946440   5.2283660   9.9248600   8.7694630   5.8212440   9.7277990
  10.0221900   5.2207200   9.1261970   5.0246030   6.9543830   3.4232450
   5.3769850   6.3571960   2.7633820   4.1408360   6.6288060   3.5940700
   2.7169130  10.2293890   7.6720520   3.3611350  10.4353270   8.3493940
   3.0798570   9.4682290   7.2191370   3.9901210   8.2326240   6.3897970
   4.6323440   7.5319400   6.5030140   4.5150560   9.0124680   6.2094860
   5.7638830   9.0321140   9.5934030   6.0995070   9.6187830  10.2711950
   4.8439170   8.9013850   9.8231820   7.2671870   3.4279360   2.6386610
   6.3262010   3.4429590   2.8134300   7.5815940   2.6415320   3.0846910
   9.2697450  10.5988210   4.3140870   9.3944870  11.4219380   4.7864680
  10.1363010  10.3878940   3.9665020   4.5837890   7.9845360  13.1218990
   3.9776050   8.0076960  12.3814740   4.2792000   7.2528400  13.6586240
   6.0138260  11.7125650  11.7328400   6.9660010  11.6283670  11.6828640
   5.8666480  12.3767360  12.4062190   7.6632360   7.5015270  12.2090170
   8.4041830   7.8391030  11.7057630   6.9005040   7.6707330  11.6559940
   6.3378020   5.5530100  10.7445380   6.7519040   5.7075180  11.5935800
   5.4029020   5.6785320  10.9071160   6.8100190   2.8926260  12.7484530
   7.3920960   2.1378580  12.6605010   6.9861960   3.4233700  11.9716010
   3.4357150   3.2366760  10.0979150   3.5553360   2.6407900  10.8373990
   4.2951150   3.2736450   9.6780450   5.7745050   3.7903950   8.6741660
   5.2480270   4.3146570   8.0706800   6.1176390   4.4231340   9.3051390
   9.3342560  10.7416980  10.4178250   8.7344550  10.8009540   9.6742170
   9.4636460   9.8021960  10.5475100  11.0360440   6.0832380   3.1024090
  11.4069270   5.2999700   2.6960060  11.6762370   6.7721480   2.9241390
   8.0194200   7.4668960   8.5154410   7.2054040   7.8966120   8.7780200
   8.4268400   8.0787370   7.9023460   9.3684600   2.6057160  10.0423630
   9.1370690   2.3769910   9.1421580   9.6289150   3.5256710   9.9968520
   9.4325660   1.7683000   7.2310900   8.4828370   1.7346540   7.3455890
   9.6138670   2.6783110   6.9960670  10.9443010  12.2259440   8.5933670
  10.4501290  12.6228310   7.8760800  10.3356300  11.6008650   8.9870950
   8.6282460  12.8682860   5.8720410   8.1685430  13.6198670   5.4978430
   7.9994920  12.1489330   5.8135210   1.7973680  12.0679590   5.8737520
   2.0851490  11.8133890   4.9970530   2.3096900  11.5156950   6.4643090
   1.8646040  12.9895690  13.2405720   2.7913350  12.7539960  13.2841680
   1.8496470  13.8167690  12.7591750   8.4323600  12.2165550  13.0646760
   9.2248920  11.7214780  12.8572720   8.7256750  12.8955690  13.6722370
  78.6719840  82.6312710  83.8039010  90.0000000  90.0000000  90.0000000
