%VERSION  VERSION_STAMP = V0001.000  DATE = 05/24/26 12:14:52                  
%FLAG TITLE                                                                     
%FORMAT(20a4)                                                                   
default_name                                                                    
%FLAG POINTERS                                                                  
%FORMAT(10I8)                                                                   
      48      11      16      34      32      48      67      66       0       0
     230       1      34      48      66      15      26      10      50       0
       0       0       0       0       0       0       0       0      48       0
       0
%FLAG ATOM_NAME                                                                 
%FORMAT(20a4)                                                                   
F1  C19 F2  F3  C18 C17 C4  C3  H2  H3  Cl1 C1  H1  C2  N2  H12 C5  O2  N3  H13 
C6  C11 C10 H6  H7  C7  H4  C8  H5  C9  O1  C20 C15 H10 C12 H8  C13 H9  N4  C14 
C21 O3  N1  H11 C16 H14 H15 H16 
%FLAG CHARGE                                                                    
%FORMAT(5E16.8)                                                                 
 -4.32591935E+00  1.41130985E+01 -4.32591935E+00 -4.32591935E+00 -6.04798137E-02
 -1.17856370E+00 -4.22575137E-01 -6.56400046E+00  3.24635741E+00  2.74065214E+00
 -1.73538252E+00 -6.10068026E+00  3.72651502E+00  8.63711509E+00 -1.52462157E+01
  7.13902336E+00  2.01177836E+01 -1.11850300E+01 -1.52684105E+01  6.81067574E+00
  9.31485709E+00 -6.93117981E+00 -2.98601541E+00  3.02116623E+00  3.64376755E+00
 -6.93117981E+00  3.64376755E+00 -2.98601541E+00  3.02116623E+00  6.34383863E+00
 -8.61657856E+00  1.24617936E+01 -9.51945708E+00  3.95591555E+00 -1.10180955E+01
  3.65604938E+00  7.74753885E+00  1.36754717E+00 -1.29800723E+01  8.47151083E+00
  9.42433667E+00 -1.03101227E+01 -8.62607237E+00  5.43640454E+00  1.66544533E+00
  6.45852979E-01  6.45852979E-01  6.45852979E-01
%FLAG ATOMIC_NUMBER                                                             
%FORMAT(10I8)                                                                   
       9       6       9       9       6       6       6       6       1       1
      17       6       1       6       7       1       6       8       7       1
       6       6       6       1       1       6       1       6       1       6
       8       6       6       1       6       1       6       1       7       6
       6       8       7       1       6       1       1       1
%FLAG MASS                                                                      
%FORMAT(5E16.8)                                                                 
  1.90000000E+01  1.20100000E+01  1.90000000E+01  1.90000000E+01  1.20100000E+01
  1.20100000E+01  1.20100000E+01  1.20100000E+01  1.00800000E+00  1.00800000E+00
  3.54500000E+01  1.20100000E+01  1.00800000E+00  1.20100000E+01  1.40100000E+01
  1.00800000E+00  1.20100000E+01  1.60000000E+01  1.40100000E+01  1.00800000E+00
  1.20100000E+01  1.20100000E+01  1.20100000E+01  1.00800000E+00  1.00800000E+00
  1.20100000E+01  1.00800000E+00  1.20100000E+01  1.00800000E+00  1.20100000E+01
  1.60000000E+01  1.20100000E+01  1.20100000E+01  1.00800000E+00  1.20100000E+01
  1.00800000E+00  1.20100000E+01  1.00800000E+00  1.40100000E+01  1.20100000E+01
  1.20100000E+01  1.60000000E+01  1.40100000E+01  1.00800000E+00  1.20100000E+01
  1.00800000E+00  1.00800000E+00  1.00800000E+00
%FLAG ATOM_TYPE_INDEX                                                           
%FORMAT(10I8)                                                                   
       1       2       1       1       3       3       3       3       4       4
       5       3       4       3       6       7       3       8       6       7
       3       3       3       4       4       3       4       3       4       3
       9       3       3       4       3       4       3      10       6       3
       3       8       6       7       2      11      11      11
%FLAG NUMBER_EXCLUDED_ATOMS                                                     
%FORMAT(10I8)                                                                   
       6       9       4       3       9       8       7       9       4       2
       1       5       2       5       6       3       6       3       8       3
       9       8       8       4       2       5       3       4       2       4
       7       9       9       4       5       3       4       2       4       5
       7       3       5       4       3       2       1       1
%FLAG NONBONDED_PARM_INDEX                                                      
%FORMAT(10I8)                                                                   
       1       2       4       7      11      16      22      29      37      46
      56       2       3       5       8      12      17      23      30      38
      47      57       4       5       6       9      13      18      24      31
      39      48      58       7       8       9      10      14      19      25
      32      40      49      59      11      12      13      14      15      20
      26      33      41      50      60      16      17      18      19      20
      21      27      34      42      51      61      22      23      24      25
      26      27      28      35      43      52      62      29      30      31
      32      33      34      35      36      44      53      63      37      38
      39      40      41      42      43      44      45      54      64      46
      47      48      49      50      51      52      53      54      55      65
      56      57      58      59      60      61      62      63      64      65
      66
%FLAG RESIDUE_LABEL                                                             
%FORMAT(20a4)                                                                   
BAX 
%FLAG RESIDUE_POINTER                                                           
%FORMAT(10I8)                                                                   
       1
%FLAG BOND_FORCE_CONSTANT                                                       
%FORMAT(5E16.8)                                                                 
  3.56900000E+02  3.21000000E+02  4.61100000E+02  3.05600000E+02  3.84200000E+02
  4.27600000E+02  6.37700000E+02  3.76600000E+02  4.88000000E+02  3.45900000E+02
  3.28700000E+02  3.45800000E+02  4.03200000E+02  3.41500000E+02  3.30600000E+02
%FLAG BOND_EQUIL_VALUE                                                          
%FORMAT(5E16.8)                                                                 
  1.35000000E+00  1.51600000E+00  1.39800000E+00  1.75000000E+00  1.41200000E+00
  1.37900000E+00  1.21800000E+00  1.37000000E+00  1.33900000E+00  1.49100000E+00
  1.46200000E+00  1.08600000E+00  1.01300000E+00  1.08900000E+00  1.09700000E+00
%FLAG ANGLE_FORCE_CONSTANT                                                      
%FORMAT(5E16.8)                                                                 
  7.09000000E+01  6.60000000E+01  6.35000000E+01  6.66000000E+01  5.79000000E+01
  6.79000000E+01  6.38000000E+01  7.42000000E+01  7.29000000E+01  6.96000000E+01
  6.35000000E+01  6.88000000E+01  6.83000000E+01  6.77000000E+01  6.43000000E+01
  6.87000000E+01  6.77000000E+01  6.34000000E+01  4.82000000E+01  4.76000000E+01
  4.83000000E+01  4.81000000E+01  5.19000000E+01  4.58000000E+01  4.98000000E+01
  3.92000000E+01
%FLAG ANGLE_EQUIL_VALUE                                                         
%FORMAT(5E16.8)                                                                 
  1.87378629E+00  1.95075534E+00  2.10783504E+00  2.09474507E+00  2.08374949E+00
  2.09771213E+00  2.15914774E+00  2.14762857E+00  1.98199675E+00  2.08043336E+00
  2.09247614E+00  2.14570870E+00  2.04587583E+00  2.05564967E+00  2.10015559E+00
  2.13977458E+00  2.01149283E+00  2.10643878E+00  2.09230160E+00  2.02458280E+00
  2.05163542E+00  2.10033012E+00  2.02510640E+00  2.05390434E+00  1.90031530E+00
  1.89298492E+00
%FLAG DIHEDRAL_FORCE_CONSTANT                                                   
%FORMAT(5E16.8)                                                                 
  0.00000000E+00  3.62500000E+00  4.50000000E-01  2.50000000E+00  9.00000000E-01
  4.80000000E+00  1.00000000E+00  1.10000000E+00  1.05000000E+01  2.00000000E+00
%FLAG DIHEDRAL_PERIODICITY                                                      
%FORMAT(5E16.8)                                                                 
  2.00000000E+00  2.00000000E+00  2.00000000E+00  2.00000000E+00  2.00000000E+00
  2.00000000E+00  2.00000000E+00  2.00000000E+00  2.00000000E+00  1.00000000E+00
%FLAG DIHEDRAL_PHASE                                                            
%FORMAT(5E16.8)                                                                 
  0.00000000E+00  3.14159400E+00  3.14159400E+00  3.14159400E+00  3.14159400E+00
  3.14159400E+00  3.14159400E+00  3.14159400E+00  3.14159400E+00  0.00000000E+00
%FLAG SCEE_SCALE_FACTOR                                                         
%FORMAT(5E16.8)                                                                 
  1.20000000E+00  1.20000000E+00  1.20000000E+00  1.20000000E+00  1.20000000E+00
  1.20000000E+00  1.20000000E+00  0.00000000E+00  0.00000000E+00  1.20000000E+00
%FLAG SCNB_SCALE_FACTOR                                                         
%FORMAT(5E16.8)                                                                 
  2.00000000E+00  2.00000000E+00  2.00000000E+00  2.00000000E+00  2.00000000E+00
  2.00000000E+00  2.00000000E+00  0.00000000E+00  0.00000000E+00  2.00000000E+00
%FLAG SOLTY                                                                     
%FORMAT(5E16.8)                                                                 
  0.00000000E+00  0.00000000E+00  0.00000000E+00  0.00000000E+00  0.00000000E+00
  0.00000000E+00  0.00000000E+00  0.00000000E+00  0.00000000E+00  0.00000000E+00
  0.00000000E+00  0.00000000E+00  0.00000000E+00  0.00000000E+00  0.00000000E+00
  0.00000000E+00  0.00000000E+00  0.00000000E+00  0.00000000E+00  0.00000000E+00
  0.00000000E+00  0.00000000E+00  0.00000000E+00  0.00000000E+00  0.00000000E+00
  0.00000000E+00  0.00000000E+00  0.00000000E+00  0.00000000E+00  0.00000000E+00
  0.00000000E+00  0.00000000E+00  0.00000000E+00  0.00000000E+00  0.00000000E+00
  0.00000000E+00  0.00000000E+00  0.00000000E+00  0.00000000E+00  0.00000000E+00
  0.00000000E+00  0.00000000E+00  0.00000000E+00  0.00000000E+00  0.00000000E+00
  0.00000000E+00  0.00000000E+00  0.00000000E+00  0.00000000E+00  0.00000000E+00
%FLAG LENNARD_JONES_ACOEF                                                       
%FORMAT(5E16.8)                                                                 
  2.06132451E+05  4.68919175E+05  1.04308023E+06  4.15756030E+05  9.24822270E+05
  8.19971662E+05  3.60700839E+04  8.59947003E+04  7.62451550E+04  5.71629601E+03
  8.31554535E+05  1.83982239E+06  1.63123475E+06  1.54217681E+05  3.24095688E+06
  4.42327516E+05  9.95480466E+05  8.82619071E+05  7.91627154E+04  1.76079018E+06
  9.44293233E+05  8.77867742E+02  2.56678134E+03  2.27577561E+03  8.90987508E+01
  4.83020816E+03  2.12601181E+03  1.39982777E-01  2.80970524E+05  6.47841731E+05
  5.74393458E+05  4.77908183E+04  1.15256113E+06  6.06829342E+05  1.02595236E+03
  3.79876399E+05  2.73550530E+05  6.28541240E+05  5.57281136E+05  4.68711055E+04
  1.11729277E+06  5.89818288E+05  1.03954408E+03  3.70622491E+05  3.61397723E+05
  2.98748723E+04  7.18621074E+04  6.37148278E+04  4.64559155E+03  1.29147101E+05
  6.58473870E+04  6.63368273E+01  3.93690817E+04  3.86654993E+04  3.76169105E+03
  2.81053481E+04  6.78771368E+04  6.01816484E+04  4.33325458E+03  1.22102013E+05
  6.20665997E+04  5.94667300E+01  3.69471530E+04  3.63097246E+04  3.50301067E+03
  3.25969625E+03
%FLAG LENNARD_JONES_BCOEF                                                       
%FORMAT(5E16.8)                                                                 
  2.24268406E+02  3.91440521E+02  6.75612247E+02  3.47061425E+02  5.99015525E+02
  5.31102864E+02  6.60630842E+01  1.18043746E+02  1.04660679E+02  1.85196588E+01
  6.50308291E+02  1.11939599E+03  9.92485818E+02  1.97211104E+02  1.85348706E+03
  4.24469669E+02  7.36907417E+02  6.53361429E+02  1.26451907E+02  1.22266505E+03
  8.01323529E+02  1.04244203E+01  2.06278363E+01  1.82891803E+01  2.33864085E+00
  3.53019992E+01  2.09604198E+01  9.37598976E-02  3.56654459E+02  6.26720080E+02
  5.55666448E+02  1.03580945E+02  1.04286543E+03  6.77220874E+02  1.53505284E+01
  5.64885984E+02  3.33805482E+02  5.85549272E+02  5.19163331E+02  9.73010751E+01
  9.73951183E+02  6.33305958E+02  1.46567808E+01  5.29252520E+02  4.95732238E+02
  6.01226754E+01  1.07908863E+02  9.56748258E+01  1.66953734E+01  1.80470661E+02
  1.15327881E+02  2.01792524E+00  9.40124296E+01  8.83744760E+01  1.50233639E+01
  5.89836782E+01  1.06076943E+02  9.40505980E+01  1.63092814E+01  1.77491593E+02
  1.13252061E+02  1.93248820E+00  9.21192136E+01  8.66220817E+01  1.46638650E+01
  1.43076527E+01
%FLAG BONDS_INC_HYDROGEN                                                        
%FORMAT(10I8)                                                                   
      24      21      12      27      18      12      36      33      12      45
      42      13      57      54      13      69      66      12      72      63
      12      78      75      12      84      81      12      99      96      12
     105     102      12     111     108      14     129     126      13     135
     132      15     138     132      15     141     132      15
%FLAG BONDS_WITHOUT_HYDROGEN                                                    
%FORMAT(10I8)                                                                   
       3       0       1       6       3       1       9       3       1      12
       3       2      15      12       3      18      15       3      21      18
       3      30      15       4      33      12       3      39      33       3
      39      21       3      42      39       5      48      42       6      51
      48       7      54      48       6      60      54       5      63      60
       3      66      63       3      75      60       3      81      75       3
      87      81       3      87      66       3      90      87       8      93
      90       8      96      93       3     102      93       3     108     102
       3     114     108       9     117     114       9     117      96       3
     120     117      10     123     120       7     126     120       6     132
     126      11
%FLAG ANGLES_INC_HYDROGEN                                                       
%FORMAT(10I8)                                                                   
      24      21      18      19      27      18      15      19      27      18
      21      19      36      33      12      19      39      33      36      19
      39      21      24      19      45      42      39      20      48      42
      45      21      57      54      48      21      60      54      57      20
      69      66      63      19      72      63      60      19      72      63
      66      19      78      75      60      19      81      75      78      19
      84      81      75      19      87      81      84      19      87      66
      69      19      99      96      93      19     105     102      93      19
     108     102     105      19     111     108     102      22     114     108
     111      23     117      96      99      19     129     126     120      21
     132     126     129      24     135     132     126      25     138     132
     126      25     138     132     135      26     141     132     126      25
     141     132     135      26     141     132     138      26
%FLAG ANGLES_WITHOUT_HYDROGEN                                                   
%FORMAT(10I8)                                                                   
       6       3       0       1       9       3       0       1       9       3
       6       1      12       3       0       2      12       3       6       2
      12       3       9       2      15      12       3       3      18      15
      12       4      21      18      15       4      30      15      12       5
      30      15      18       5      33      12       3       3      33      12
      15       4      33      39      21       4      39      33      12       4
      39      21      18       4      42      39      33       6      42      39
      21       6      48      42      39       7      51      48      42       8
      54      48      42       9      54      48      51       8      60      54
      48       7      63      60      54       6      66      63      60       4
      75      60      54       6      75      60      63       4      81      75
      60       4      81      87      66       4      87      81      75       4
      87      66      63       4      90      87      81      10      90      87
      66      10      93      90      87      11      96      93      90      10
     102      93      90      10     102      93      96       4     108     102
      93       4     114     108     102      12     114     117      96      12
     117     114     108      13     117      96      93       4     120     117
     114      14     120     117      96      15     123     120     117      16
     126     120     117      17     126     120     123       8     132     126
     120      18
%FLAG DIHEDRALS_INC_HYDROGEN                                                    
%FORMAT(10I8)                                                                   
      24      21      18      15       2      27      18      15      12       2
      27      18      21      24       2      30      15      18      27       2
      33      39      21      24       2      36      33      12       3       2
      36      33      12      15       2      36      33      39      21       2
      39      21      18      27       2      42      39      33      36       2
      42      39      21      24       2      45      42      39      33       3
      45      42      39      21       3      51      48      42      45      10
      51      48     -42      45       4      54      48      42      45       4
      57      54      48      42       4      57      54      48      51      10
      57      54     -48      51       4      63      60      54      57       3
      69      66      63      60       2      72      63      60      54       2
      72      63      66      69       2      75      60      54      57       3
      75      60      63      72       2      78      75      60      54       2
      78      75      60      63       2      81      87      66      69       2
      84      81      75      60       2      84      81      75      78       2
      84      81      87      66       2      87      81      75      78       2
      87      66      63      72       2      90      87      81      84       2
      90      87      66      69       2      99      96      93      90       2
     102      93      96      99       2     105     102      93      90       2
     105     102      93      96       2     111     108     102      93       2
     111     108     102     105       2     114     108     102     105       2
     114     117      96      99       2     117     114     108     111       6
     120     117      96      99       2     129     126     120     117       4
     129     126     120     123      10     129     126    -120     123       4
     135     132     126     120       1     135     132     126     129       1
     138     132     126     120       1     138     132     126     129       1
     141     132     126     120       1     141     132     126     129       1
      15      21     -18     -27       8      18      39     -21     -24       8
      12      39     -33     -36       8      48      39     -42     -45       8
      48      60     -54     -57       8      60      66     -63     -72       8
      63      87     -66     -69       8      60      81     -75     -78       8
      75      87     -81     -84       8      93     117     -96     -99       8
      93     108    -102    -105       8     102     111    -108    -114       8
     120     132    -126    -129       8
%FLAG DIHEDRALS_WITHOUT_HYDROGEN                                                
%FORMAT(10I8)                                                                   
      15      12       3       0       1      15      12       3       6       1
      15      12       3       9       1      18      15      12       3       2
      21      18      15      12       2      21      39     -33      12       2
      30      15      12       3       2      30      15      18      21       2
      33      12       3       0       1      33      12       3       6       1
      33      12       3       9       1      33      12      15      18       2
      33      12      15      30       2      33      39     -21      18       2
      39      33      12       3       2      39      33      12      15       2
      39      21     -18      15       2      42      39      33      12       2
      42      39      21      18       2      48      42      39      33       3
      48      42      39      21       3      51      48      42      39       4
      54      48      42      39       4      60      54      48      42       4
      60      54      48      51       4      63      60      54      48       3
      66      63      60      54       2      75      60      54      48       3
      75      60      63      66       2      75      81     -87      66       2
      81      75      60      54       2      81      75      60      63       2
      81      87     -66      63       2      87      81      75      60       2
      87      66     -63      60       2      90      87      81      75       2
      90      87      66      63       2      93      90      87      81       5
      93      90      87      66       5      96      93      90      87       5
     102      93      90      87       5     108     102      93      90       2
     108     102      93      96       2     108     114    -117      96       6
     114     108     102      93       2     114     117     -96      93       2
     117     114     108     102       6     117      96      93      90       2
     117      96     -93     102       2     120     117     114     108       6
     120     117      96      93       2     123     120     117     114       7
     123     120     117      96       7     126     120     117     114       7
     126     120     117      96       7     132     126     120     117       4
     132     126     120     123       4       3      15     -12     -33       8
      12      18     -15     -30       8      21      33     -39     -42       8
      42      54     -48     -51       9      63      75     -60     -54       8
      66      81     -87     -90       8      96     102     -93     -90       8
     120      96    -117    -114       8     117     126    -120    -123       9
%FLAG EXCLUDED_ATOMS_LIST                                                       
%FORMAT(10I8)                                                                   
       2       3       4       5       6      12       3       4       5       6
       7      11      12      13      14       4       5       6      12       5
       6      12       6       7       8      10      11      12      13      14
      15       7       8       9      10      11      12      13      14       8
       9      10      11      12      14      15       9      10      11      12
      13      14      15      16      17      10      12      14      15      11
      14      12      13      14      15      16      17      14      15      15
      16      17      18      19      16      17      18      19      20      21
      17      18      19      18      19      20      21      22      26      19
      20      21      20      21      22      23      25      26      27      28
      21      22      26      22      23      24      25      26      27      28
      29      30      23      24      25      26      27      28      30      31
      24      25      26      28      29      30      31      32      25      28
      30      31      26      30      27      28      29      30      31      28
      29      30      29      30      31      32      30      31      31      32
      33      35      32      33      34      35      36      37      40      33
      34      35      36      37      38      39      40      41      34      35
      36      37      39      40      41      42      43      35      39      40
      41      36      37      38      39      40      37      38      39      38
      39      40      41      39      40      40      41      42      43      41
      42      43      44      45      42      43      44      45      46      47
      48      43      44      45      44      45      46      47      48      45
      46      47      48      46      47      48      47      48      48       0
%FLAG HBOND_ACOEF                                                               
%FORMAT(5E16.8)                                                                 

%FLAG HBOND_BCOEF                                                               
%FORMAT(5E16.8)                                                                 

%FLAG HBCUT                                                                     
%FORMAT(5E16.8)                                                                 

%FLAG AMBER_ATOM_TYPE                                                           
%FORMAT(20a4)                                                                   
f   c3  f   f   ca  ca  ca  ca  ha  ha  cl  ca  ha  ca  n   hn  c   o   n   hn  
ca  ca  ca  ha  ha  ca  ha  ca  ha  ca  os  ca  ca  ha  ca  ha  ca  h4  nb  ca  
c   o   n   hn  c3  h1  h1  h1  
%FLAG TREE_CHAIN_CLASSIFICATION                                                 
%FORMAT(20a4)                                                                   
M   M   E   E   M   B   B   S   E   E   E   M   E   M   M   E   M   E   M   E   
M   M   M   E   E   B   E   S   E   M   M   M   M   E   B   E   B   E   E   M   
M   E   M   E   M   E   E   E   
%FLAG JOIN_ARRAY                                                                
%FORMAT(10I8)                                                                   
       0       0       0       0       0       0       0       0       0       0
       0       0       0       0       0       0       0       0       0       0
       0       0       0       0       0       0       0       0       0       0
       0       0       0       0       0       0       0       0       0       0
       0       0       0       0       0       0       0       0
%FLAG IROTAT                                                                    
%FORMAT(10I8)                                                                   
       0       0       0       0       0       0       0       0       0       0
       0       0       0       0       0       0       0       0       0       0
       0       0       0       0       0       0       0       0       0       0
       0       0       0       0       0       0       0       0       0       0
       0       0       0       0       0       0       0       0
%FLAG RADIUS_SET                                                                
%FORMAT(1a80)                                                                   
H(N)-modified Bondi radii (mbondi2)                                             
%FLAG RADII                                                                     
%FORMAT(5E16.8)                                                                 
  1.50000000E+00  1.70000000E+00  1.50000000E+00  1.50000000E+00  1.70000000E+00
  1.70000000E+00  1.70000000E+00  1.70000000E+00  1.20000000E+00  1.20000000E+00
  1.70000000E+00  1.70000000E+00  1.20000000E+00  1.70000000E+00  1.55000000E+00
  1.30000000E+00  1.70000000E+00  1.50000000E+00  1.55000000E+00  1.30000000E+00
  1.70000000E+00  1.70000000E+00  1.70000000E+00  1.20000000E+00  1.20000000E+00
  1.70000000E+00  1.20000000E+00  1.70000000E+00  1.20000000E+00  1.70000000E+00
  1.50000000E+00  1.70000000E+00  1.70000000E+00  1.20000000E+00  1.70000000E+00
  1.20000000E+00  1.70000000E+00  1.20000000E+00  1.55000000E+00  1.70000000E+00
  1.70000000E+00  1.50000000E+00  1.55000000E+00  1.30000000E+00  1.70000000E+00
  1.20000000E+00  1.20000000E+00  1.20000000E+00
%FLAG SCREEN                                                                    
%FORMAT(5E16.8)                                                                 
  8.80000000E-01  7.20000000E-01  8.80000000E-01  8.80000000E-01  7.20000000E-01
  7.20000000E-01  7.20000000E-01  7.20000000E-01  8.50000000E-01  8.50000000E-01
  8.00000000E-01  7.20000000E-01  8.50000000E-01  7.20000000E-01  7.90000000E-01
  8.50000000E-01  7.20000000E-01  8.50000000E-01  7.90000000E-01  8.50000000E-01
  7.20000000E-01  7.20000000E-01  7.20000000E-01  8.50000000E-01  8.50000000E-01
  7.20000000E-01  8.50000000E-01  7.20000000E-01  8.50000000E-01  7.20000000E-01
  8.50000000E-01  7.20000000E-01  7.20000000E-01  8.50000000E-01  7.20000000E-01
  8.50000000E-01  7.20000000E-01  8.50000000E-01  7.90000000E-01  7.20000000E-01
  7.20000000E-01  8.50000000E-01  7.90000000E-01  8.50000000E-01  7.20000000E-01
  8.50000000E-01  8.50000000E-01  8.50000000E-01
%FLAG RESIDUE_NUMBER                                                            
%FORMAT(20I4)                                                                   
 304
