%VERSION  VERSION_STAMP = V0001.000  DATE = 05/23/26 13:42:26                  
%FLAG TITLE                                                                     
%FORMAT(20a4)                                                                   
default_name                                                                    
%FLAG POINTERS                                                                  
%FORMAT(10I8)                                                                   
      61       9      24      41      51      57     107      97       0       0
     312       1      41      57      97      21      40      29      50       0
       0       0       0       0       0       0       0       0      61       0
       0
%FLAG ATOM_NAME                                                                 
%FORMAT(20a4)                                                                   
C26 C25 C22 H18 H21 H22 C24 H20 C21 H17 C20 C23 H19 C28 H24 C27 H23 N4  N3  H16 
C1  O1  C2  C19 C18 H14 H15 C3  H1  C4  H2  C5  N1  H3  C6  O5  C7  H4  H5  N2  
C17 O4  C8  C9  H6  C10 H7  C11 H8  C12 H9  C13 C14 O2  C15 H10 H11 C16 H12 H13 
O3  
%FLAG CHARGE                                                                    
%FORMAT(5E16.8)                                                                 
 -3.00243370E+00 -1.93759538E+00 -4.59868896E+00  2.88841677E+00  2.42309212E+00
  2.49676488E+00 -1.93759538E+00  2.42309212E+00 -4.59868896E+00  2.88841677E+00
  5.22176407E+00 -5.29775106E+00  2.67528875E+00 -3.77028498E+00  3.17310377E+00
  4.33537673E+00  1.82507268E+00 -6.11616922E+00 -6.60042684E+00  4.75520030E+00
  1.48076414E+01 -1.03494828E+01 -4.20721929E+00 -1.26827208E+00 -6.32235454E+00
  3.81179538E+00  2.50416313E+00 -1.26827208E+00  2.50416313E+00 -6.32235454E+00
  3.81179538E+00  9.06490180E+00 -1.36515094E+01  5.90172919E+00  1.60252920E+01
 -1.06378325E+01 -7.89521237E+00  3.18247003E+00  3.18247003E+00 -1.73004338E+00
  8.15965438E+00 -8.93781948E+00  2.69458617E+00 -3.60043492E+00  2.70039908E+00
 -1.60930242E+00  2.63960949E+00 -3.35572766E+00  2.42043166E+00 -1.52028649E+00
  3.20003633E+00 -3.97601475E+00  1.09699157E+01 -8.64618979E+00  2.90576440E+00
  8.26490639E-01  8.26490639E-01  2.90576440E+00  8.26490639E-01  8.26490639E-01
 -8.64618979E+00
%FLAG ATOMIC_NUMBER                                                             
%FORMAT(10I8)                                                                   
       6       6       6       1       1       1       6       1       6       1
       6       6       1       6       1       6       1       7       7       1
       6       8       6       6       6       1       1       6       1       6
       1       6       7       1       6       8       6       1       1       7
       6       8       6       6       1       6       1       6       1       6
       1       6       6       8       6       1       1       6       1       1
       8
%FLAG MASS                                                                      
%FORMAT(5E16.8)                                                                 
  1.20100000E+01  1.20100000E+01  1.20100000E+01  1.00800000E+00  1.00800000E+00
  1.00800000E+00  1.20100000E+01  1.00800000E+00  1.20100000E+01  1.00800000E+00
  1.20100000E+01  1.20100000E+01  1.00800000E+00  1.20100000E+01  1.00800000E+00
  1.20100000E+01  1.00800000E+00  1.40100000E+01  1.40100000E+01  1.00800000E+00
  1.20100000E+01  1.60000000E+01  1.20100000E+01  1.20100000E+01  1.20100000E+01
  1.00800000E+00  1.00800000E+00  1.20100000E+01  1.00800000E+00  1.20100000E+01
  1.00800000E+00  1.20100000E+01  1.40100000E+01  1.00800000E+00  1.20100000E+01
  1.60000000E+01  1.20100000E+01  1.00800000E+00  1.00800000E+00  1.40100000E+01
  1.20100000E+01  1.60000000E+01  1.20100000E+01  1.20100000E+01  1.00800000E+00
  1.20100000E+01  1.00800000E+00  1.20100000E+01  1.00800000E+00  1.20100000E+01
  1.00800000E+00  1.20100000E+01  1.20100000E+01  1.60000000E+01  1.20100000E+01
  1.00800000E+00  1.00800000E+00  1.20100000E+01  1.00800000E+00  1.00800000E+00
  1.60000000E+01
%FLAG ATOM_TYPE_INDEX                                                           
%FORMAT(10I8)                                                                   
       1       1       1       2       2       2       1       2       1       2
       1       1       2       1       2       1       3       4       4       5
       1       6       1       1       1       2       2       1       2       1
       2       1       4       5       1       6       7       8       8       4
       1       6       1       1       2       1       2       1       2       1
       2       1       7       9       7       8       8       7       8       8
       9
%FLAG NUMBER_EXCLUDED_ATOMS                                                     
%FORMAT(10I8)                                                                   
      10       9      10       4       3       3       5       3       5       2
       5       6       3       5       3       5       2       5       6       3
       8       3       9       8       9       4       2       5       3       5
       2       5       7       3       7       4       9       4       3      11
      10       5      11       8       4       6       3       5       3       5
       2       5       8       7       6       5       4       3       2       1
       1
%FLAG NONBONDED_PARM_INDEX                                                      
%FORMAT(10I8)                                                                   
       1       2       4       7      11      16      22      29      37       2
       3       5       8      12      17      23      30      38       4       5
       6       9      13      18      24      31      39       7       8       9
      10      14      19      25      32      40      11      12      13      14
      15      20      26      33      41      16      17      18      19      20
      21      27      34      42      22      23      24      25      26      27
      28      35      43      29      30      31      32      33      34      35
      36      44      37      38      39      40      41      42      43      44
      45
%FLAG RESIDUE_LABEL                                                             
%FORMAT(20a4)                                                                   
E13 
%FLAG RESIDUE_POINTER                                                           
%FORMAT(10I8)                                                                   
       1
%FLAG BOND_FORCE_CONSTANT                                                       
%FORMAT(5E16.8)                                                                 
  4.61100000E+02  3.61300000E+02  5.38600000E+02  3.82800000E+02  5.82400000E+02
  5.17500000E+02  4.27600000E+02  6.37700000E+02  3.45900000E+02  3.84200000E+02
  3.13000000E+02  3.28700000E+02  3.21000000E+02  3.08600000E+02  3.00900000E+02
  3.45800000E+02  3.42500000E+02  3.42500000E+02  3.37800000E+02  4.03200000E+02
  3.30600000E+02
%FLAG BOND_EQUIL_VALUE                                                          
%FORMAT(5E16.8)                                                                 
  1.39800000E+00  1.47600000E+00  1.35100000E+00  1.45700000E+00  1.28700000E+00
  1.36000000E+00  1.37900000E+00  1.21800000E+00  1.49100000E+00  1.41200000E+00
  1.52400000E+00  1.46200000E+00  1.51600000E+00  1.43200000E+00  1.53800000E+00
  1.08600000E+00  1.08800000E+00  1.08800000E+00  1.09200000E+00  1.01300000E+00
  1.09700000E+00
%FLAG ANGLE_FORCE_CONSTANT                                                      
%FORMAT(5E16.8)                                                                 
  6.66000000E+01  6.45000000E+01  6.37000000E+01  6.50000000E+01  6.93000000E+01
  7.05000000E+01  6.77000000E+01  7.42000000E+01  6.77000000E+01  6.87000000E+01
  6.43000000E+01  6.79000000E+01  6.38000000E+01  6.68000000E+01  6.74000000E+01
  6.70000000E+01  6.34000000E+01  6.30000000E+01  6.37000000E+01  6.35000000E+01
  6.83000000E+01  6.80000000E+01  6.27000000E+01  6.80000000E+01  7.27000000E+01
  4.82000000E+01  4.70000000E+01  4.98000000E+01  4.98000000E+01  4.72000000E+01
  4.69000000E+01  5.21000000E+01  4.98000000E+01  4.83000000E+01  4.76000000E+01
  4.70000000E+01  3.92000000E+01  4.98000000E+01  5.08000000E+01  4.64000000E+01
%FLAG ANGLE_EQUIL_VALUE                                                         
%FORMAT(5E16.8)                                                                 
  2.09474507E+00  2.10870771E+00  2.22564482E+00  2.16839799E+00  2.07572097E+00
  2.05914033E+00  2.09282520E+00  2.14762857E+00  2.01149283E+00  2.13977458E+00
  2.10015559E+00  2.09771213E+00  2.15914774E+00  2.01027109E+00  2.15024656E+00
  1.90345690E+00  2.10643878E+00  2.09142894E+00  1.93749083E+00  2.10783504E+00
  1.90153704E+00  1.90607489E+00  1.96314718E+00  1.88443280E+00  1.89001786E+00
  2.09230160E+00  2.00939843E+00  2.06332913E+00  2.06332913E+00  2.03592745E+00
  2.06175833E+00  2.12022688E+00  2.07833896E+00  2.05163542E+00  2.02458280E+00
  1.88879613E+00  1.89298492E+00  1.90031530E+00  1.91602327E+00  1.91218355E+00
%FLAG DIHEDRAL_FORCE_CONSTANT                                                   
%FORMAT(5E16.8)                                                                 
  3.62500000E+00  7.00000000E-01  6.65000000E+00  1.00000000E+00  8.00000000E-01
  4.00000000E-01  2.50000000E+00  4.50000000E-01  1.70000000E+00  2.00000000E+00
  0.00000000E+00  8.00000000E-01  8.50000000E-01  0.00000000E+00  1.50000000E+00
  3.83333333E-01  1.00000000E-01  3.83000000E-01  1.35000000E+00  1.00000000E-01
  1.17500000E+00  1.44000000E-01  1.10000000E+00  1.05000000E+01  2.00000000E+00
  8.00000000E-02  2.50000000E-01  0.00000000E+00  1.55555556E-01
%FLAG DIHEDRAL_PERIODICITY                                                      
%FORMAT(5E16.8)                                                                 
  2.00000000E+00  2.00000000E+00  2.00000000E+00  2.00000000E+00  2.00000000E+00
  2.00000000E+00  2.00000000E+00  2.00000000E+00  1.00000000E+00  2.00000000E+00
  2.00000000E+00  1.00000000E+00  2.00000000E+00  2.00000000E+00  1.00000000E+00
  3.00000000E+00  2.00000000E+00  3.00000000E+00  1.00000000E+00  3.00000000E+00
  2.00000000E+00  3.00000000E+00  2.00000000E+00  2.00000000E+00  1.00000000E+00
  3.00000000E+00  1.00000000E+00  3.00000000E+00  3.00000000E+00
%FLAG DIHEDRAL_PHASE                                                            
%FORMAT(5E16.8)                                                                 
  3.14159400E+00  3.14159400E+00  3.14159400E+00  3.14159400E+00  3.14159400E+00
  0.00000000E+00  3.14159400E+00  3.14159400E+00  3.14159400E+00  3.14159400E+00
  3.14159400E+00  0.00000000E+00  3.14159400E+00  0.00000000E+00  3.14159400E+00
  0.00000000E+00  3.14159400E+00  0.00000000E+00  3.14159400E+00  0.00000000E+00
  0.00000000E+00  0.00000000E+00  3.14159400E+00  3.14159400E+00  0.00000000E+00
  3.14159400E+00  0.00000000E+00  0.00000000E+00  0.00000000E+00
%FLAG SCEE_SCALE_FACTOR                                                         
%FORMAT(5E16.8)                                                                 
  1.20000000E+00  1.20000000E+00  1.20000000E+00  1.20000000E+00  1.20000000E+00
  1.20000000E+00  1.20000000E+00  1.20000000E+00  1.20000000E+00  1.20000000E+00
  1.20000000E+00  1.20000000E+00  1.20000000E+00  1.20000000E+00  1.20000000E+00
  1.20000000E+00  1.20000000E+00  1.20000000E+00  1.20000000E+00  1.20000000E+00
  1.20000000E+00  1.20000000E+00  0.00000000E+00  0.00000000E+00  1.20000000E+00
  1.20000000E+00  1.20000000E+00  1.20000000E+00  1.20000000E+00
%FLAG SCNB_SCALE_FACTOR                                                         
%FORMAT(5E16.8)                                                                 
  2.00000000E+00  2.00000000E+00  2.00000000E+00  2.00000000E+00  2.00000000E+00
  2.00000000E+00  2.00000000E+00  2.00000000E+00  2.00000000E+00  2.00000000E+00
  2.00000000E+00  2.00000000E+00  2.00000000E+00  2.00000000E+00  2.00000000E+00
  2.00000000E+00  2.00000000E+00  2.00000000E+00  2.00000000E+00  2.00000000E+00
  2.00000000E+00  2.00000000E+00  0.00000000E+00  0.00000000E+00  2.00000000E+00
  2.00000000E+00  2.00000000E+00  2.00000000E+00  2.00000000E+00
%FLAG SOLTY                                                                     
%FORMAT(5E16.8)                                                                 
  0.00000000E+00  0.00000000E+00  0.00000000E+00  0.00000000E+00  0.00000000E+00
  0.00000000E+00  0.00000000E+00  0.00000000E+00  0.00000000E+00  0.00000000E+00
  0.00000000E+00  0.00000000E+00  0.00000000E+00  0.00000000E+00  0.00000000E+00
  0.00000000E+00  0.00000000E+00  0.00000000E+00  0.00000000E+00  0.00000000E+00
  0.00000000E+00  0.00000000E+00  0.00000000E+00  0.00000000E+00  0.00000000E+00
  0.00000000E+00  0.00000000E+00  0.00000000E+00  0.00000000E+00  0.00000000E+00
  0.00000000E+00  0.00000000E+00  0.00000000E+00  0.00000000E+00  0.00000000E+00
  0.00000000E+00  0.00000000E+00  0.00000000E+00  0.00000000E+00  0.00000000E+00
  0.00000000E+00  0.00000000E+00  0.00000000E+00  0.00000000E+00  0.00000000E+00
  0.00000000E+00  0.00000000E+00  0.00000000E+00  0.00000000E+00  0.00000000E+00
%FLAG LENNARD_JONES_ACOEF                                                       
%FORMAT(5E16.8)                                                                 
  8.19971662E+05  7.62451550E+04  5.71629601E+03  6.37148278E+04  4.64559155E+03
  3.76169105E+03  8.82619071E+05  7.91627154E+04  6.58473870E+04  9.44293233E+05
  2.27577561E+03  8.90987508E+01  6.63368273E+01  2.12601181E+03  1.39982777E-01
  5.74393458E+05  4.77908183E+04  3.93690817E+04  6.06829342E+05  1.02595236E+03
  3.79876399E+05  9.24822270E+05  8.59947003E+04  7.18621074E+04  9.95480466E+05
  2.56678134E+03  6.47841731E+05  1.04308023E+06  6.01816484E+04  4.33325458E+03
  3.50301067E+03  6.20665997E+04  5.94667300E+01  3.69471530E+04  6.78771368E+04
  3.25969625E+03  5.57281136E+05  4.68711055E+04  3.86654993E+04  5.89818288E+05
  1.03954408E+03  3.70622491E+05  6.28541240E+05  3.63097246E+04  3.61397723E+05
%FLAG LENNARD_JONES_BCOEF                                                       
%FORMAT(5E16.8)                                                                 
  5.31102864E+02  1.04660679E+02  1.85196588E+01  9.56748258E+01  1.66953734E+01
  1.50233639E+01  6.53361429E+02  1.26451907E+02  1.15327881E+02  8.01323529E+02
  1.82891803E+01  2.33864085E+00  2.01792524E+00  2.09604198E+01  9.37598976E-02
  5.55666448E+02  1.03580945E+02  9.40124296E+01  6.77220874E+02  1.53505284E+01
  5.64885984E+02  5.99015525E+02  1.18043746E+02  1.07908863E+02  7.36907417E+02
  2.06278363E+01  6.26720080E+02  6.75612247E+02  9.40505980E+01  1.63092814E+01
  1.46638650E+01  1.13252061E+02  1.93248820E+00  9.21192136E+01  1.06076943E+02
  1.43076527E+01  5.19163331E+02  9.73010751E+01  8.83744760E+01  6.33305958E+02
  1.46567808E+01  5.29252520E+02  5.85549272E+02  8.66220817E+01  4.95732238E+02
%FLAG BONDS_INC_HYDROGEN                                                        
%FORMAT(10I8)                                                                   
       9       6      16      12       3      16      15       0      16      21
      18      16      27      24      16      36      33      17      42      39
      18      48      45      19      57      54      20      75      72      16
      78      69      16      84      81      16      90      87      16      99
      96      20     111     108      21     114     108      21     132     129
      16     138     135      16     144     141      16     150     147      16
     165     162      21     168     162      21     174     171      21     177
     171      21
%FLAG BONDS_WITHOUT_HYDROGEN                                                    
%FORMAT(10I8)                                                                   
       3       0       1       6       3       1      18       0       1      24
      18       1      30      24       1      30       6       1      33      30
       2      39      33       3      45      39       4      51      45       5
      54      51       6      60      54       7      63      60       8      66
      60       9      69      66       1      72      69       1      81      66
       1      87      81       1      93      87       1      93      72       1
      96      93      10     102      96       7     105     102       8     108
     102      11     117     108      12     120     117       7     123     120
       8     126     117      10     129     126       1     135     129       1
     141     135       1     147     141       1     153     147       1     153
     126       1     156     153      13     156     120      11     159     156
      14     162     159      14     171     162      15     180     171      14
     180     156      14
%FLAG ANGLES_INC_HYDROGEN                                                       
%FORMAT(10I8)                                                                   
       9       6       3      26      12       3       0      26      12       3
       6      26      15       0       3      26      18       0      15      26
      21      18       0      26      24      18      21      26      27      24
      18      26      30      24      27      26      30       6       9      26
      36      33      30      27      39      33      36      28      42      39
      33      29      45      39      42      30      48      45      39      31
      51      45      48      32      57      54      51      33      60      54
      57      34      75      72      69      26      78      69      66      26
      78      69      72      26      84      81      66      26      87      81
      84      26      90      87      81      26      93      87      90      26
      93      72      75      26      99      96      93      35     102      96
      99      34     111     108     102      36     114     108     102      36
     114     108     111      37     117     108     111      38     117     108
     114      38     132     129     126      26     135     129     132      26
     138     135     129      26     141     135     138      26     144     141
     135      26     147     141     144      26     150     147     141      26
     153     147     150      26     165     162     159      39     168     162
     159      39     168     162     165      37     171     162     165      40
     171     162     168      40     174     171     162      40     177     171
     162      40     177     171     174      37     180     171     174      39
     180     171     177      39
%FLAG ANGLES_WITHOUT_HYDROGEN                                                   
%FORMAT(10I8)                                                                   
       6       3       0       1      18       0       3       1      24      18
       0       1      24      30       6       1      30      24      18       1
      30       6       3       1      33      30      24       2      33      30
       6       2      39      33      30       3      45      39      33       4
      51      45      39       5      54      51      45       6      60      54
      51       7      63      60      54       8      66      60      54       9
      66      60      63      10      69      66      60      11      72      69
      66       1      81      66      60      11      81      66      69       1
      87      81      66       1      87      93      72       1      93      87
      81       1      93      72      69       1      96      93      87      12
      96      93      72      12     102      96      93      13     105     102
      96       8     108     102      96      14     108     102     105      15
     117     108     102      16     120     117     108      17     123     120
     117       8     126     117     108      18     126     117     120      13
     129     126     117      12     135     129     126       1     141     135
     129       1     147     141     135       1     147     153     126       1
     153     147     141       1     153     156     120      19     153     126
     117      12     153     126     129       1     156     153     147      20
     156     153     126      20     156     120     117      14     156     120
     123      15     159     156     153      21     159     156     120      22
     162     159     156      23     171     162     159      24     171     180
     156      23     180     171     162      24     180     156     153      21
     180     156     159      25     180     156     120      22
%FLAG DIHEDRALS_INC_HYDROGEN                                                    
%FORMAT(10I8)                                                                   
       9       6       3       0       1      12       3       6       9       1
      15       0       3       6       1      15       0       3      12       1
      18       0       3      12       1      21      18       0       3       1
      21      18       0      15       1      24      18       0      15       1
      24      30       6       9       1      27      24      18       0       1
      27      24      18      21       1      27      24      30       6       1
      30      24      18      21       1      30       6       3      12       1
      33      30      24      27       1      33      30       6       9       1
      36      33      30      24       2      36      33      30       6       2
      42      39      33      30       3      42      39      33      36       3
      45      39      33      36       3      48      45      39      33       4
      48      45      39      42       4      51      45      39      42       4
      54      51      45      48       5      57      54      51      45       6
      63      60      54      57      25      63      60     -54      57       7
      66      60      54      57       7      75      72      69      66       1
      78      69      66      60       1      78      69      72      75       1
      81      66      69      78       1      84      81      66      60       1
      84      81      66      69       1      87      93      72      75       1
      90      87      81      66       1      90      87      81      84       1
      90      87      93      72       1      93      87      81      84       1
      93      72      69      78       1      96      93      87      90       1
      96      93      72      75       1      99      96      93      87       8
      99      96      93      72       8     105     102      96      99      25
     105     102     -96      99       7     108     102      96      99       7
     111     108     102      96      11     111     108     102     105      12
     111     108    -102     105      14     111     108    -102     105      26
     114     108     102      96      11     114     108     102     105      12
     114     108    -102     105      14     114     108    -102     105      26
     120     117     108     111      14     120     117     108     114      14
     126     117     108     111      14     126     117     108     114      14
     132     129     126     117       1     138     135     129     126       1
     138     135     129     132       1     141     135     129     132       1
     144     141     135     129       1     144     141     135     138       1
     147     141     135     138       1     150     147     141     135       1
     150     147     141     144       1     150     147     153     126       1
     153     147     141     144       1     153     126     129     132       1
     156     153     147     150       1     165     162     159     156      16
     168     162     159     156      16     174     171     162     159      27
     174     171    -162     159      28     174     171     162     165      29
     174     171     162     168      29     174     171     180     156      16
     177     171     162     159      27     177     171    -162     159      28
     177     171     162     165      29     177     171     162     168      29
     177     171     180     156      16     180     171     162     165      27
     180     171    -162     165      28     180     171     162     168      27
     180     171    -162     168      28      15       0     -18      -3      23
       0       6      -3     -12      23       3      30      -6      -9      23
       0      24     -18     -21      23      18      30     -24     -27      23
      30      39     -33     -36      23      33      45     -39     -42      23
      39      48     -45     -51      23      60      57     -54     -51      23
      66      72     -69     -78      23      69      93     -72     -75      23
      66      87     -81     -84      23      81      93     -87     -90      23
     102      93     -96     -99      23     126     135    -129    -132      23
     129     141    -135    -138      23     135     147    -141    -144      23
     141     153    -147    -150      23
%FLAG DIHEDRALS_WITHOUT_HYDROGEN                                                
%FORMAT(10I8)                                                                   
      18       0       3       6       1      18      24     -30       6       1
      24      18       0       3       1      24      30      -6       3       1
      30      24      18       0       1       0       3      -6      30       1
      33      30      24      18       1      33      30       6       3       1
      39      33      30      24       2      39      33      30       6       2
      45      39      33      30       3      51      45      39      33       4
      54      51      45      39       5      60      54      51      45       6
      63      60      54      51       7      66      60      54      51       7
      69      66      60      54       4      69      66      60      63       4
      72      69      66      60       1      81      66      60      54       4
      81      66      60      63       4      81      66      69      72       1
      81      87     -93      72       1      87      81      66      60       1
      87      81      66      69       1      87      93     -72      69       1
      93      87      81      66       1      93      72     -69      66       1
      96      93      87      81       1      96      93      72      69       1
     102      96      93      87       8     102      96      93      72       8
     105     102      96      93       7     108     102      96      93       7
     117     108     102      96       9     117     108    -102      96      10
     117     108     102     105      11     120     117     108     102      12
     120     117    -108     102      13     123     120     117     108       7
     126     117     108     102      14     126     117     120     123       7
     126     153    -156     120      14     129     126     117     108       8
     129     126     117     120       8     135     129     126     117       1
     141     135     129     126       1     141     147    -153     126       1
     147     141     135     129       1     147     153     156     120      14
     147     153     126     117       1     147     153    -126     129       1
     153     147     141     135       1     153     156    -120     117      11
     153     156     120     123      11     153     126     117     108       8
     153     126    -117     120       8     153     126    -129     135       1
     156     153     147     141       1     156     153    -126     117       1
     156     153     126     129       1     156     120     117     108      15
     156     120    -117     108      14     156     120    -117     126       7
     159     156     153     147      14     159     156     153     126      14
     159     156     120     117      11     159     156     120     123      11
     162     159     156     153      16     162     159     156     120      16
     162     171    -180     156      17     162     171    -180     156      18
     171     162    -159     156      17     171     162    -159     156      18
     171     180     156     153      16     171     180    -156     159      19
     171     180    -156     159      13     171     180    -156     159      20
     171     180     156     120      16     180     171    -162     159      21
     180     171    -162     159      22     180     156     153     147      14
     180     156     153     126      14     180     156    -159     162      19
     180     156    -159     162      13     180     156    -159     162      20
     180     156     120     117      11     180     156     120     123      11
       6      24     -30     -33      23      66      54     -60     -63      24
      60      69     -66     -81      23      72      87     -93     -96      23
     108      96    -102    -105      24     120     108    -117    -126      23
     156     117    -120    -123      24     129     153    -126    -117      23
     156     126    -153    -147      23
%FLAG EXCLUDED_ATOMS_LIST                                                       
%FORMAT(10I8)                                                                   
       2       3       4       5       6       7       8       9      10      11
       3       4       5       6       7       8       9      11      12       4
       5       6       7       9      10      11      12      13      14       5
       9      11      12       6       7      11       7       8       9       8
       9      10      11      12       9      10      11      10      11      12
      13      14      11      12      12      13      14      15      16      13
      14      15      16      17      18      14      15      16      15      16
      17      18      19      16      17      18      17      18      19      20
      21      18      19      19      20      21      22      23      20      21
      22      23      24      28      21      22      23      22      23      24
      25      27      28      29      30      23      24      28      24      25
      26      27      28      29      30      31      32      25      26      27
      28      29      30      32      33      26      27      28      30      31
      32      33      34      35      27      30      32      33      28      32
      29      30      31      32      33      30      31      32      31      32
      33      34      35      32      33      33      34      35      36      37
      34      35      36      37      38      39      40      35      36      37
      36      37      38      39      40      41      43      37      38      39
      40      38      39      40      41      42      43      44      52      53
      39      40      41      43      40      41      43      41      42      43
      44      45      46      50      52      53      54      61      42      43
      44      50      52      53      54      55      58      61      43      52
      53      54      61      44      45      46      47      48      50      51
      52      53      54      61      45      46      47      48      49      50
      52      53      46      47      48      52      47      48      49      50
      51      52      48      49      50      49      50      51      52      53
      50      51      52      51      52      53      54      61      52      53
      53      54      55      58      61      54      55      56      57      58
      59      60      61      55      56      57      58      59      60      61
      56      57      58      59      60      61      57      58      59      60
      61      58      59      60      61      59      60      61      60      61
      61       0
%FLAG HBOND_ACOEF                                                               
%FORMAT(5E16.8)                                                                 

%FLAG HBOND_BCOEF                                                               
%FORMAT(5E16.8)                                                                 

%FLAG HBCUT                                                                     
%FORMAT(5E16.8)                                                                 

%FLAG AMBER_ATOM_TYPE                                                           
%FORMAT(20a4)                                                                   
ca  ca  ca  ha  ha  ha  ca  ha  ca  ha  ca  ce  ha  cf  ha  cf  h4  n2  n   hn  
c   o   ca  ca  ca  ha  ha  ca  ha  ca  ha  ca  n   hn  c   o   c3  h1  h1  n   
c   o   ca  ca  ha  ca  ha  ca  ha  ca  ha  ca  c3  os  c3  h1  h1  c3  h1  h1  
os  
%FLAG TREE_CHAIN_CLASSIFICATION                                                 
%FORMAT(20a4)                                                                   
M   B   S   E   E   E   M   E   M   E   M   M   E   M   E   M   E   M   M   E   
M   E   M   M   M   E   E   B   E   S   E   M   M   E   M   E   M   E   E   M   
M   E   B   S   E   S   E   B   E   B   E   S   M   S   3   E   E   B   E   E   
M   
%FLAG JOIN_ARRAY                                                                
%FORMAT(10I8)                                                                   
       0       0       0       0       0       0       0       0       0       0
       0       0       0       0       0       0       0       0       0       0
       0       0       0       0       0       0       0       0       0       0
       0       0       0       0       0       0       0       0       0       0
       0       0       0       0       0       0       0       0       0       0
       0       0       0       0       0       0       0       0       0       0
       0
%FLAG IROTAT                                                                    
%FORMAT(10I8)                                                                   
       0       0       0       0       0       0       0       0       0       0
       0       0       0       0       0       0       0       0       0       0
       0       0       0       0       0       0       0       0       0       0
       0       0       0       0       0       0       0       0       0       0
       0       0       0       0       0       0       0       0       0       0
       0       0       0       0       0       0       0       0       0       0
       0
%FLAG RADIUS_SET                                                                
%FORMAT(1a80)                                                                   
H(N)-modified Bondi radii (mbondi2)                                             
%FLAG RADII                                                                     
%FORMAT(5E16.8)                                                                 
  1.70000000E+00  1.70000000E+00  1.70000000E+00  1.20000000E+00  1.20000000E+00
  1.20000000E+00  1.70000000E+00  1.20000000E+00  1.70000000E+00  1.20000000E+00
  1.70000000E+00  1.70000000E+00  1.20000000E+00  1.70000000E+00  1.20000000E+00
  1.70000000E+00  1.20000000E+00  1.55000000E+00  1.55000000E+00  1.30000000E+00
  1.70000000E+00  1.50000000E+00  1.70000000E+00  1.70000000E+00  1.70000000E+00
  1.20000000E+00  1.20000000E+00  1.70000000E+00  1.20000000E+00  1.70000000E+00
  1.20000000E+00  1.70000000E+00  1.55000000E+00  1.30000000E+00  1.70000000E+00
  1.50000000E+00  1.70000000E+00  1.20000000E+00  1.20000000E+00  1.55000000E+00
  1.70000000E+00  1.50000000E+00  1.70000000E+00  1.70000000E+00  1.20000000E+00
  1.70000000E+00  1.20000000E+00  1.70000000E+00  1.20000000E+00  1.70000000E+00
  1.20000000E+00  1.70000000E+00  1.70000000E+00  1.50000000E+00  1.70000000E+00
  1.20000000E+00  1.20000000E+00  1.70000000E+00  1.20000000E+00  1.20000000E+00
  1.50000000E+00
%FLAG SCREEN                                                                    
%FORMAT(5E16.8)                                                                 
  7.20000000E-01  7.20000000E-01  7.20000000E-01  8.50000000E-01  8.50000000E-01
  8.50000000E-01  7.20000000E-01  8.50000000E-01  7.20000000E-01  8.50000000E-01
  7.20000000E-01  7.20000000E-01  8.50000000E-01  7.20000000E-01  8.50000000E-01
  7.20000000E-01  8.50000000E-01  7.90000000E-01  7.90000000E-01  8.50000000E-01
  7.20000000E-01  8.50000000E-01  7.20000000E-01  7.20000000E-01  7.20000000E-01
  8.50000000E-01  8.50000000E-01  7.20000000E-01  8.50000000E-01  7.20000000E-01
  8.50000000E-01  7.20000000E-01  7.90000000E-01  8.50000000E-01  7.20000000E-01
  8.50000000E-01  7.20000000E-01  8.50000000E-01  8.50000000E-01  7.90000000E-01
  7.20000000E-01  8.50000000E-01  7.20000000E-01  7.20000000E-01  8.50000000E-01
  7.20000000E-01  8.50000000E-01  7.20000000E-01  8.50000000E-01  7.20000000E-01
  8.50000000E-01  7.20000000E-01  7.20000000E-01  8.50000000E-01  7.20000000E-01
  8.50000000E-01  8.50000000E-01  7.20000000E-01  8.50000000E-01  8.50000000E-01
  8.50000000E-01
%FLAG RESIDUE_NUMBER                                                            
%FORMAT(20I4)                                                                   
 304
