%VERSION  VERSION_STAMP = V0001.000  DATE = 05/23/26 13:41:02                  
%FLAG TITLE                                                                     
%FORMAT(20a4)                                                                   
default_name                                                                    
%FLAG POINTERS                                                                  
%FORMAT(10I8)                                                                   
      46       8      18      31      38      45      77      82       0       0
     238       1      31      45      82      15      31      26      47       0
       0       0       0       0       0       0       0       0      46       0
       0
%FLAG ATOM_NAME                                                                 
%FORMAT(20a4)                                                                   
N4  H17 H18 N3  H16 C17 O3  C14 C15 C16 H11 H10 C13 H9  C12 H8  C11 N2  H7  C10 
O2  C9  H5  H6  N1  C7  O1  C4  C3  H3  C2  H2  C1  H1  C6  H4  C5  C8  O4  C18 
H12 H13 C19 H14 H15 O5  
%FLAG CHARGE                                                                    
%FORMAT(5E16.8)                                                                 
 -1.34733864E+01  6.64000567E+00  6.64000567E+00 -9.40425570E+00  6.66030532E+00
  1.70728009E+01 -1.13313915E+01 -7.30369829E+00  1.86140795E-01 -6.69026278E+00
  3.79317219E+00  2.25971098E+00  1.86140795E-01  2.25971098E+00 -6.69026278E+00
  3.79317219E+00  8.91340160E+00 -1.20427172E+01  5.00484581E+00  1.54960070E+01
 -1.01746399E+01 -1.02862332E+01  3.94523728E+00  3.94523728E+00 -8.24814187E-01
  6.74844658E+00 -8.27640466E+00  2.92836005E+00 -3.54839203E+00  2.68221323E+00
 -1.75311282E+00  2.79397059E+00 -3.62368658E+00  2.64086683E+00 -1.66458888E+00
  3.34213382E+00 -4.70399563E+00  1.23214819E+01 -8.51325811E+00  1.92412910E+00
  1.17918326E+00  1.17918326E+00  1.92412910E+00  1.17918326E+00  1.17918326E+00
 -8.51325811E+00
%FLAG ATOMIC_NUMBER                                                             
%FORMAT(10I8)                                                                   
       7       1       1       7       1       6       8       6       6       6
       1       1       6       1       6       1       6       7       1       6
       8       6       1       1       7       6       8       6       6       1
       6       1       6       1       6       1       6       6       8       6
       1       1       6       1       1       8
%FLAG MASS                                                                      
%FORMAT(5E16.8)                                                                 
  1.40100000E+01  1.00800000E+00  1.00800000E+00  1.40100000E+01  1.00800000E+00
  1.20100000E+01  1.60000000E+01  1.20100000E+01  1.20100000E+01  1.20100000E+01
  1.00800000E+00  1.00800000E+00  1.20100000E+01  1.00800000E+00  1.20100000E+01
  1.00800000E+00  1.20100000E+01  1.40100000E+01  1.00800000E+00  1.20100000E+01
  1.60000000E+01  1.20100000E+01  1.00800000E+00  1.00800000E+00  1.40100000E+01
  1.20100000E+01  1.60000000E+01  1.20100000E+01  1.20100000E+01  1.00800000E+00
  1.20100000E+01  1.00800000E+00  1.20100000E+01  1.00800000E+00  1.20100000E+01
  1.00800000E+00  1.20100000E+01  1.20100000E+01  1.60000000E+01  1.20100000E+01
  1.00800000E+00  1.00800000E+00  1.20100000E+01  1.00800000E+00  1.00800000E+00
  1.60000000E+01
%FLAG ATOM_TYPE_INDEX                                                           
%FORMAT(10I8)                                                                   
       1       2       2       1       2       3       4       3       3       3
       5       5       3       5       3       5       3       1       2       3
       4       6       7       7       1       3       4       3       3       5
       3       5       3       5       3       5       3       6       8       6
       7       7       6       7       7       8
%FLAG NUMBER_EXCLUDED_ATOMS                                                     
%FORMAT(10I8)                                                                   
       7       4       3       6       3       8       3       9       8       9
       4       2       5       3       5       2       5       7       3       7
       4       9       4       3      11      10       5      11       8       4
       6       3       5       3       5       2       5       8       7       6
       5       4       3       2       1       1
%FLAG NONBONDED_PARM_INDEX                                                      
%FORMAT(10I8)                                                                   
       1       2       4       7      11      16      22      29       2       3
       5       8      12      17      23      30       4       5       6       9
      13      18      24      31       7       8       9      10      14      19
      25      32      11      12      13      14      15      20      26      33
      16      17      18      19      20      21      27      34      22      23
      24      25      26      27      28      35      29      30      31      32
      33      34      35      36
%FLAG RESIDUE_LABEL                                                             
%FORMAT(20a4)                                                                   
E02 
%FLAG RESIDUE_POINTER                                                           
%FORMAT(10I8)                                                                   
       1
%FLAG BOND_FORCE_CONSTANT                                                       
%FORMAT(5E16.8)                                                                 
  4.48700000E+02  4.27600000E+02  6.37700000E+02  3.45900000E+02  4.61100000E+02
  3.84200000E+02  3.13000000E+02  3.28700000E+02  3.21000000E+02  3.08600000E+02
  3.00900000E+02  3.92400000E+02  4.03200000E+02  3.45800000E+02  3.30600000E+02
%FLAG BOND_EQUIL_VALUE                                                          
%FORMAT(5E16.8)                                                                 
  1.40400000E+00  1.37900000E+00  1.21800000E+00  1.49100000E+00  1.39800000E+00
  1.41200000E+00  1.52400000E+00  1.46200000E+00  1.51600000E+00  1.43200000E+00
  1.53800000E+00  1.01900000E+00  1.01300000E+00  1.08600000E+00  1.09700000E+00
%FLAG ANGLE_FORCE_CONSTANT                                                      
%FORMAT(5E16.8)                                                                 
  6.66000000E+01  7.42000000E+01  6.77000000E+01  6.87000000E+01  6.43000000E+01
  6.66000000E+01  6.79000000E+01  6.38000000E+01  6.68000000E+01  6.74000000E+01
  6.70000000E+01  6.34000000E+01  6.30000000E+01  6.37000000E+01  6.35000000E+01
  6.83000000E+01  6.80000000E+01  6.27000000E+01  6.80000000E+01  7.27000000E+01
  4.14000000E+01  5.08000000E+01  4.88000000E+01  4.83000000E+01  4.82000000E+01
  4.76000000E+01  4.70000000E+01  3.92000000E+01  4.98000000E+01  5.08000000E+01
  4.64000000E+01
%FLAG ANGLE_EQUIL_VALUE                                                         
%FORMAT(5E16.8)                                                                 
  2.09614133E+00  2.14762857E+00  2.01149283E+00  2.13977458E+00  2.10015559E+00
  2.09474507E+00  2.09771213E+00  2.15914774E+00  2.01027109E+00  2.15024656E+00
  1.90345690E+00  2.10643878E+00  2.09142894E+00  1.93749083E+00  2.10783504E+00
  1.90153704E+00  1.90607489E+00  1.96314718E+00  1.88443280E+00  1.89001786E+00
  1.85703112E+00  1.88705080E+00  2.04622489E+00  2.05163542E+00  2.09230160E+00
  2.02458280E+00  1.88879613E+00  1.89298492E+00  1.90031530E+00  1.91602327E+00
  1.91218355E+00
%FLAG DIHEDRAL_FORCE_CONSTANT                                                   
%FORMAT(5E16.8)                                                                 
  2.50000000E+00  1.00000000E+00  3.62500000E+00  4.50000000E-01  1.70000000E+00
  2.00000000E+00  0.00000000E+00  8.00000000E-01  8.50000000E-01  0.00000000E+00
  1.50000000E+00  3.83333333E-01  1.00000000E-01  3.83000000E-01  1.35000000E+00
  1.00000000E-01  1.17500000E+00  1.44000000E-01  1.05000000E+01  1.10000000E+00
  1.07500000E+00  2.00000000E+00  8.00000000E-02  2.50000000E-01  0.00000000E+00
  1.55555556E-01
%FLAG DIHEDRAL_PERIODICITY                                                      
%FORMAT(5E16.8)                                                                 
  2.00000000E+00  2.00000000E+00  2.00000000E+00  2.00000000E+00  1.00000000E+00
  2.00000000E+00  2.00000000E+00  1.00000000E+00  2.00000000E+00  2.00000000E+00
  1.00000000E+00  3.00000000E+00  2.00000000E+00  3.00000000E+00  1.00000000E+00
  3.00000000E+00  2.00000000E+00  3.00000000E+00  2.00000000E+00  2.00000000E+00
  2.00000000E+00  1.00000000E+00  3.00000000E+00  1.00000000E+00  3.00000000E+00
  3.00000000E+00
%FLAG DIHEDRAL_PHASE                                                            
%FORMAT(5E16.8)                                                                 
  3.14159400E+00  3.14159400E+00  3.14159400E+00  3.14159400E+00  3.14159400E+00
  3.14159400E+00  3.14159400E+00  0.00000000E+00  3.14159400E+00  0.00000000E+00
  3.14159400E+00  0.00000000E+00  3.14159400E+00  0.00000000E+00  3.14159400E+00
  0.00000000E+00  0.00000000E+00  0.00000000E+00  3.14159400E+00  3.14159400E+00
  0.00000000E+00  0.00000000E+00  3.14159400E+00  0.00000000E+00  0.00000000E+00
  0.00000000E+00
%FLAG SCEE_SCALE_FACTOR                                                         
%FORMAT(5E16.8)                                                                 
  1.20000000E+00  1.20000000E+00  1.20000000E+00  1.20000000E+00  1.20000000E+00
  1.20000000E+00  1.20000000E+00  1.20000000E+00  1.20000000E+00  1.20000000E+00
  1.20000000E+00  1.20000000E+00  1.20000000E+00  1.20000000E+00  1.20000000E+00
  1.20000000E+00  1.20000000E+00  1.20000000E+00  0.00000000E+00  0.00000000E+00
  1.20000000E+00  1.20000000E+00  1.20000000E+00  1.20000000E+00  1.20000000E+00
  1.20000000E+00
%FLAG SCNB_SCALE_FACTOR                                                         
%FORMAT(5E16.8)                                                                 
  2.00000000E+00  2.00000000E+00  2.00000000E+00  2.00000000E+00  2.00000000E+00
  2.00000000E+00  2.00000000E+00  2.00000000E+00  2.00000000E+00  2.00000000E+00
  2.00000000E+00  2.00000000E+00  2.00000000E+00  2.00000000E+00  2.00000000E+00
  2.00000000E+00  2.00000000E+00  2.00000000E+00  0.00000000E+00  0.00000000E+00
  2.00000000E+00  2.00000000E+00  2.00000000E+00  2.00000000E+00  2.00000000E+00
  2.00000000E+00
%FLAG SOLTY                                                                     
%FORMAT(5E16.8)                                                                 
  0.00000000E+00  0.00000000E+00  0.00000000E+00  0.00000000E+00  0.00000000E+00
  0.00000000E+00  0.00000000E+00  0.00000000E+00  0.00000000E+00  0.00000000E+00
  0.00000000E+00  0.00000000E+00  0.00000000E+00  0.00000000E+00  0.00000000E+00
  0.00000000E+00  0.00000000E+00  0.00000000E+00  0.00000000E+00  0.00000000E+00
  0.00000000E+00  0.00000000E+00  0.00000000E+00  0.00000000E+00  0.00000000E+00
  0.00000000E+00  0.00000000E+00  0.00000000E+00  0.00000000E+00  0.00000000E+00
  0.00000000E+00  0.00000000E+00  0.00000000E+00  0.00000000E+00  0.00000000E+00
  0.00000000E+00  0.00000000E+00  0.00000000E+00  0.00000000E+00  0.00000000E+00
  0.00000000E+00  0.00000000E+00  0.00000000E+00  0.00000000E+00  0.00000000E+00
  0.00000000E+00  0.00000000E+00
%FLAG LENNARD_JONES_ACOEF                                                       
%FORMAT(5E16.8)                                                                 
  9.44293233E+05  2.12601181E+03  1.39982777E-01  8.82619071E+05  2.27577561E+03
  8.19971662E+05  6.06829342E+05  1.02595236E+03  5.74393458E+05  3.79876399E+05
  7.91627154E+04  8.90987508E+01  7.62451550E+04  4.77908183E+04  5.71629601E+03
  9.95480466E+05  2.56678134E+03  9.24822270E+05  6.47841731E+05  8.59947003E+04
  1.04308023E+06  6.20665997E+04  5.94667300E+01  6.01816484E+04  3.69471530E+04
  4.33325458E+03  6.78771368E+04  3.25969625E+03  5.89818288E+05  1.03954408E+03
  5.57281136E+05  3.70622491E+05  4.68711055E+04  6.28541240E+05  3.63097246E+04
  3.61397723E+05
%FLAG LENNARD_JONES_BCOEF                                                       
%FORMAT(5E16.8)                                                                 
  8.01323529E+02  2.09604198E+01  9.37598976E-02  6.53361429E+02  1.82891803E+01
  5.31102864E+02  6.77220874E+02  1.53505284E+01  5.55666448E+02  5.64885984E+02
  1.26451907E+02  2.33864085E+00  1.04660679E+02  1.03580945E+02  1.85196588E+01
  7.36907417E+02  2.06278363E+01  5.99015525E+02  6.26720080E+02  1.18043746E+02
  6.75612247E+02  1.13252061E+02  1.93248820E+00  9.40505980E+01  9.21192136E+01
  1.63092814E+01  1.06076943E+02  1.43076527E+01  6.33305958E+02  1.46567808E+01
  5.19163331E+02  5.29252520E+02  9.73010751E+01  5.85549272E+02  8.66220817E+01
  4.95732238E+02
%FLAG BONDS_INC_HYDROGEN                                                        
%FORMAT(10I8)                                                                   
       3       0      12       6       0      12      12       9      13      30
      27      14      33      24      14      39      36      14      45      42
      14      54      51      13      66      63      15      69      63      15
      87      84      14      93      90      14      99      96      14     105
     102      14     120     117      15     123     117      15     129     126
      15     132     126      15
%FLAG BONDS_WITHOUT_HYDROGEN                                                    
%FORMAT(10I8)                                                                   
       9       0       1      15       9       2      18      15       3      21
      15       4      24      21       5      27      24       5      36      21
       5      42      36       5      48      42       5      48      27       5
      51      48       6      57      51       2      60      57       3      63
      57       7      72      63       8      75      72       2      78      75
       3      81      72       6      84      81       5      90      84       5
      96      90       5     102      96       5     108     102       5     108
      81       5     111     108       9     111      75       7     114     111
      10     117     114      10     126     117      11     135     126      10
     135     111      10
%FLAG ANGLES_INC_HYDROGEN                                                       
%FORMAT(10I8)                                                                   
       6       0       3      21       9       0       3      22       9       0
       6      22      12       9       0      23      15       9      12      24
      30      27      24      25      33      24      21      25      33      24
      27      25      39      36      21      25      42      36      39      25
      45      42      36      25      48      42      45      25      48      27
      30      25      54      51      48      26      57      51      54      24
      66      63      57      27      69      63      57      27      69      63
      66      28      72      63      66      29      72      63      69      29
      87      84      81      25      90      84      87      25      93      90
      84      25      96      90      93      25      99      96      90      25
     102      96      99      25     105     102      96      25     108     102
     105      25     120     117     114      30     123     117     114      30
     123     117     120      28     126     117     120      31     126     117
     123      31     129     126     117      31     132     126     117      31
     132     126     129      28     135     126     129      30     135     126
     132      30
%FLAG ANGLES_WITHOUT_HYDROGEN                                                   
%FORMAT(10I8)                                                                   
      15       9       0       1      18      15       9       2      21      15
       9       3      21      15      18       4      24      21      15       5
      27      24      21       6      36      21      15       5      36      21
      24       6      42      36      21       6      42      48      27       6
      48      42      36       6      48      27      24       6      51      48
      42       7      51      48      27       7      57      51      48       8
      60      57      51       2      63      57      51       9      63      57
      60      10      72      63      57      11      75      72      63      12
      78      75      72       2      81      72      63      13      81      72
      75       8      84      81      72       7      90      84      81       6
      96      90      84       6     102      96      90       6     102     108
      81       6     108     102      96       6     108     111      75      14
     108      81      72       7     108      81      84       6     111     108
     102      15     111     108      81      15     111      75      72       9
     111      75      78      10     114     111     108      16     114     111
      75      17     117     114     111      18     126     117     114      19
     126     135     111      18     135     126     117      19     135     111
     108      16     135     111     114      20     135     111      75      17
%FLAG DIHEDRALS_INC_HYDROGEN                                                    
%FORMAT(10I8)                                                                   
      12       9       0       3      21      12       9       0       6      21
      15       9       0       3      21      15       9       0       6      21
      18      15       9      12      22      18      15      -9      12       1
      21      15       9      12       1      30      27      24      21       3
      33      24      21      15       3      33      24      27      30       3
      36      21      24      33       3      39      36      21      15       3
      39      36      21      24       3      42      48      27      30       3
      45      42      36      21       3      45      42      36      39       3
      45      42      48      27       3      48      42      36      39       3
      48      27      24      33       3      51      48      42      45       3
      51      48      27      30       3      54      51      48      42       4
      54      51      48      27       4      60      57      51      54      22
      60      57     -51      54       1      63      57      51      54       1
      66      63      57      51       7      66      63      57      60       8
      66      63     -57      60      10      66      63     -57      60      23
      69      63      57      51       7      69      63      57      60       8
      69      63     -57      60      10      69      63     -57      60      23
      75      72      63      66      10      75      72      63      69      10
      81      72      63      66      10      81      72      63      69      10
      87      84      81      72       3      93      90      84      81       3
      93      90      84      87       3      96      90      84      87       3
      99      96      90      84       3      99      96      90      93       3
     102      96      90      93       3     105     102      96      90       3
     105     102      96      99       3     105     102     108      81       3
     108     102      96      99       3     108      81      84      87       3
     111     108     102     105       3     120     117     114     111      12
     123     117     114     111      12     129     126     117     114      24
     129     126    -117     114      25     129     126     117     120      26
     129     126     117     123      26     129     126     135     111      12
     132     126     117     114      24     132     126    -117     114      25
     132     126     117     120      26     132     126     117     123      26
     132     126     135     111      12     135     126     117     120      24
     135     126    -117     120      25     135     126     117     123      24
     135     126    -117     123      25       0       9     -12     -15      20
      21      27     -24     -33      20      24      48     -27     -30      20
      21      42     -36     -39      20      36      48     -42     -45      20
      57      48     -51     -54      20      81      90     -84     -87      20
      84      96     -90     -93      20      90     102     -96     -99      20
      96     108    -102    -105      20
%FLAG DIHEDRALS_WITHOUT_HYDROGEN                                                
%FORMAT(10I8)                                                                   
      18      15       9       0       1      21      15       9       0       1
      24      21      15       9       2      24      21      15      18       2
      27      24      21      15       3      36      21      15       9       2
      36      21      15      18       2      36      21      24      27       3
      36      42     -48      27       3      42      36      21      15       3
      42      36      21      24       3      42      48     -27      24       3
      48      42      36      21       3      48      27     -24      21       3
      51      48      42      36       3      51      48      27      24       3
      57      51      48      42       4      57      51      48      27       4
      60      57      51      48       1      63      57      51      48       1
      72      63      57      51       5      72      63     -57      51       6
      72      63      57      60       7      75      72      63      57       8
      75      72     -63      57       9      78      75      72      63       1
      81      72      63      57      10      81      72      75      78       1
      81     108    -111      75      10      84      81      72      63       4
      84      81      72      75       4      90      84      81      72       3
      96      90      84      81       3      96     102    -108      81       3
     102      96      90      84       3     102     108     111      75      10
     102     108      81      72       3     102     108     -81      84       3
     108     102      96      90       3     108     111     -75      72       7
     108     111      75      78       7     108      81      72      63       4
     108      81     -72      75       4     108      81     -84      90       3
     111     108     102      96       3     111     108     -81      72       3
     111     108      81      84       3     111      75      72      63      11
     111      75     -72      63      10     111      75     -72      81       1
     114     111     108     102      10     114     111     108      81      10
     114     111      75      72       7     114     111      75      78       7
     117     114     111     108      12     117     114     111      75      12
     117     126    -135     111      13     117     126    -135     111      14
     126     117    -114     111      13     126     117    -114     111      14
     126     135     111     108      12     126     135    -111     114      15
     126     135    -111     114       9     126     135    -111     114      16
     126     135     111      75      12     135     126    -117     114      17
     135     126    -117     114      18     135     111     108     102      10
     135     111     108      81      10     135     111    -114     117      15
     135     111    -114     117       9     135     111    -114     117      16
     135     111      75      72       7     135     111      75      78       7
      21       9     -15     -18      19      15      24     -21     -36      20
      27      42     -48     -51      20      63      51     -57     -60      19
      75      63     -72     -81      20     111      72     -75     -78      19
      84     108     -81     -72      20     111      81    -108    -102      20
%FLAG EXCLUDED_ATOMS_LIST                                                       
%FORMAT(10I8)                                                                   
       2       3       4       5       6       7       8       3       4       5
       6       4       5       6       5       6       7       8       9      13
       6       7       8       7       8       9      10      12      13      14
      15       8       9      13       9      10      11      12      13      14
      15      16      17      10      11      12      13      14      15      17
      18      11      12      13      15      16      17      18      19      20
      12      15      17      18      13      17      14      15      16      17
      18      15      16      17      16      17      18      19      20      17
      18      18      19      20      21      22      19      20      21      22
      23      24      25      20      21      22      21      22      23      24
      25      26      28      22      23      24      25      23      24      25
      26      27      28      29      37      38      24      25      26      28
      25      26      28      26      27      28      29      30      31      35
      37      38      39      46      27      28      29      35      37      38
      39      40      43      46      28      37      38      39      46      29
      30      31      32      33      35      36      37      38      39      46
      30      31      32      33      34      35      37      38      31      32
      33      37      32      33      34      35      36      37      33      34
      35      34      35      36      37      38      35      36      37      36
      37      38      39      46      37      38      38      39      40      43
      46      39      40      41      42      43      44      45      46      40
      41      42      43      44      45      46      41      42      43      44
      45      46      42      43      44      45      46      43      44      45
      46      44      45      46      45      46      46       0
%FLAG HBOND_ACOEF                                                               
%FORMAT(5E16.8)                                                                 

%FLAG HBOND_BCOEF                                                               
%FORMAT(5E16.8)                                                                 

%FLAG HBCUT                                                                     
%FORMAT(5E16.8)                                                                 

%FLAG AMBER_ATOM_TYPE                                                           
%FORMAT(20a4)                                                                   
n3  hn  hn  n   hn  c   o   ca  ca  ca  ha  ha  ca  ha  ca  ha  ca  n   hn  c   
o   c3  h1  h1  n   c   o   ca  ca  ha  ca  ha  ca  ha  ca  ha  ca  c3  os  c3  
h1  h1  c3  h1  h1  os  
%FLAG TREE_CHAIN_CLASSIFICATION                                                 
%FORMAT(20a4)                                                                   
M   E   E   M   E   M   E   M   B   S   E   E   M   E   M   E   M   M   E   M   
E   M   E   E   M   M   E   B   B   E   B   E   B   E   S   E   E   M   S   3   
E   E   B   E   E   M   
%FLAG JOIN_ARRAY                                                                
%FORMAT(10I8)                                                                   
       0       0       0       0       0       0       0       0       0       0
       0       0       0       0       0       0       0       0       0       0
       0       0       0       0       0       0       0       0       0       0
       0       0       0       0       0       0       0       0       0       0
       0       0       0       0       0       0
%FLAG IROTAT                                                                    
%FORMAT(10I8)                                                                   
       0       0       0       0       0       0       0       0       0       0
       0       0       0       0       0       0       0       0       0       0
       0       0       0       0       0       0       0       0       0       0
       0       0       0       0       0       0       0       0       0       0
       0       0       0       0       0       0
%FLAG RADIUS_SET                                                                
%FORMAT(1a80)                                                                   
H(N)-modified Bondi radii (mbondi2)                                             
%FLAG RADII                                                                     
%FORMAT(5E16.8)                                                                 
  1.55000000E+00  1.30000000E+00  1.30000000E+00  1.55000000E+00  1.30000000E+00
  1.70000000E+00  1.50000000E+00  1.70000000E+00  1.70000000E+00  1.70000000E+00
  1.20000000E+00  1.20000000E+00  1.70000000E+00  1.20000000E+00  1.70000000E+00
  1.20000000E+00  1.70000000E+00  1.55000000E+00  1.30000000E+00  1.70000000E+00
  1.50000000E+00  1.70000000E+00  1.20000000E+00  1.20000000E+00  1.55000000E+00
  1.70000000E+00  1.50000000E+00  1.70000000E+00  1.70000000E+00  1.20000000E+00
  1.70000000E+00  1.20000000E+00  1.70000000E+00  1.20000000E+00  1.70000000E+00
  1.20000000E+00  1.70000000E+00  1.70000000E+00  1.50000000E+00  1.70000000E+00
  1.20000000E+00  1.20000000E+00  1.70000000E+00  1.20000000E+00  1.20000000E+00
  1.50000000E+00
%FLAG SCREEN                                                                    
%FORMAT(5E16.8)                                                                 
  7.90000000E-01  8.50000000E-01  8.50000000E-01  7.90000000E-01  8.50000000E-01
  7.20000000E-01  8.50000000E-01  7.20000000E-01  7.20000000E-01  7.20000000E-01
  8.50000000E-01  8.50000000E-01  7.20000000E-01  8.50000000E-01  7.20000000E-01
  8.50000000E-01  7.20000000E-01  7.90000000E-01  8.50000000E-01  7.20000000E-01
  8.50000000E-01  7.20000000E-01  8.50000000E-01  8.50000000E-01  7.90000000E-01
  7.20000000E-01  8.50000000E-01  7.20000000E-01  7.20000000E-01  8.50000000E-01
  7.20000000E-01  8.50000000E-01  7.20000000E-01  8.50000000E-01  7.20000000E-01
  8.50000000E-01  7.20000000E-01  7.20000000E-01  8.50000000E-01  7.20000000E-01
  8.50000000E-01  8.50000000E-01  7.20000000E-01  8.50000000E-01  8.50000000E-01
  8.50000000E-01
%FLAG RESIDUE_NUMBER                                                            
%FORMAT(20I4)                                                                   
 304
