default_name
 43668
  22.8096633  28.8505742  45.6042694  22.5065504  28.7799964  44.6434144
  22.2226163  29.5196816  46.0815236  22.9213174  27.9192003  45.9786698
  24.1766633  29.4465742  45.6162694  24.2159293  30.3661544  46.2001611
  25.0826633  28.4085742  46.2782694  24.9994779  27.4853663  45.7048004
  26.1057442  28.7802466  46.2211285  24.7156633  28.1315742  47.7592694
  24.4696334  29.0302838  48.3248587  23.8522112  27.4665776  47.7411223
  25.8936633  27.4185742  48.4232694  26.6056633  26.6755742  47.7062694
  26.1236633  27.6905742  49.6242694  24.6876633  29.9625742  44.2842694
  25.2556633  31.0525742  44.2312694  24.4266633  29.2775742  43.1552694
  23.8800974  28.4301177  43.2116834  24.9166633  29.6945742  41.8552694
  25.8239806  30.2913832  41.9485081  25.2426633  28.4305742  41.0562694
  24.4081783  27.7378603  41.1652719  25.4274463  28.6122699  39.9975240
  26.4446633  27.7345742  41.5842694  26.3556633  26.9795742  42.7392694
  25.5669662  26.8484340  43.3564071  27.5446633  26.4445742  42.8832694
  27.6876631  25.7913191  43.7440294  28.4016633  26.8205742  41.8962694
  27.6886633  27.6545742  41.0612694  28.1700599  28.0909134  40.1860742
  23.9386633  30.5385742  41.0572694  24.1386633  30.7985742  39.8782694
  22.8486633  31.0025742  41.7062694  22.6391465  30.5818478  42.6002444
  21.8646633  31.8945742  41.1172694  21.0591690  32.0643668  41.8317263
  22.4906633  33.2635742  40.7412694  23.3202377  33.1409086  40.0449514
  21.7475299  33.9317958  40.3061456  23.1696633  34.1365742  42.1862694
  23.5951921  35.2039427  41.5165322  21.0336633  31.2905742  39.9822694
  20.5666633  31.9845742  39.0832694  20.7266633  29.9785742  40.0372694
  21.1070046  29.4242300  40.7910216  19.9636633  29.3025742  39.0022694
  20.3015208  29.5886523  38.0062218  20.1936633  27.7965742  39.1842694
  19.9149336  27.5193066  40.2008970  19.5648359  27.2573609  38.4758026
  21.6796633  27.4305742  38.9382694  21.7551895  27.0307381  37.9270683
  22.3089183  28.3162454  39.0261545  22.1426633  26.3795742  39.9342694
  22.1276633  26.7265742  41.1522694  22.5346633  25.2735742  39.4962694
  18.4766633  29.6525742  38.9592694  17.8306633  29.5575742  37.9182694
  17.9226633  30.1355742  40.0902694  18.4753103  30.0792243  40.9337771
  16.5606633  30.6205742  40.1922694  15.8866740  29.9717419  39.6329355
  16.1206633  30.6285742  41.6782694  16.2118386  29.6019347  42.0329490
  16.8336959  31.2601663  42.2081523  14.6836633  31.1395742  41.9422694
  14.7162897  32.2196838  41.7994425  14.0571546  30.6904587  41.1716306
  14.0966633  30.8235742  43.3282694  13.0751731  31.1955842  43.4074238
  14.1071870  29.7497143  43.5148536  14.9416633  31.5045742  44.3762694
  14.7421872  32.4817020  44.5360504  15.9186633  30.9245742  45.0922694
  16.2416633  29.6475742  44.9132694  15.7468367  29.0961186  44.2268705
  16.9804137  29.2346546  45.4644906  16.5766633  31.6375742  46.0042694
  16.3373342  32.6077234  46.1513481  17.3120684  31.2049669  46.5447589
  16.3346633  31.9795742  39.5442694  15.2876633  32.2185742  38.9522694
  17.2916633  32.9335742  39.6482694  18.1241718  32.7783036  40.1986511
  17.0236633  34.2785742  39.1692694  15.9502070  34.4605445  39.2210154
  17.7536633  35.3695742  40.0042694  17.2928620  36.2993981  39.6708195
  17.4986784  35.1926036  41.0491446  19.2826633  35.4745742  39.8602694
  19.6586917  34.5009462  39.5460212  19.7046633  36.5415742  38.8362694
  19.3293656  37.5156176  39.1501005  20.7923063  36.5750437  38.7729195
  19.2918376  36.2913809  37.8589881  19.9256633  35.7955742  41.2202694
  19.6888443  35.0035527  41.9307045  21.0070559  35.8669621  41.1036715
  19.5373773  36.7439967  41.5915209  17.2316633  34.3685742  37.6432694
  18.1486633  33.7285742  37.1052694  16.3926633  35.0745742  36.8782694
  15.0636633  35.4785742  37.3312694  15.1832592  36.1938483  38.1450138
  14.5447754  34.5935452  37.6994785  14.3806633  36.0875742  36.1122694
  14.5478982  37.1640371  36.0754035  13.3094011  35.8872964  36.1319561
  15.0466633  35.3785742  34.9332694  15.1255957  36.0608987  34.0869231
  14.5001969  34.4856483  34.6296950  16.4526633  34.9915742  35.4262694
  16.6811396  33.9606492  35.1559169  17.5026633  35.9105742  34.8402694
  18.1076633  36.7155742  35.5412694  17.7296633  35.7815742  33.5252694
  17.2353081  35.0389693  33.0517186  18.6256633  36.6075742  32.7532694
  19.3077751  37.1522183  33.4060982  19.4626633  35.6885742  31.8142694
  20.1027842  35.1073992  32.4780314  18.7989420  35.0165998  31.2701881
  20.3146633  36.4505742  30.8372694  21.3316633  37.2945742  31.2902694
  21.5368133  37.3633218  32.3585796  22.0846633  38.0485742  30.3832694
  22.8417336  38.7391162  30.7548850  21.8486633  37.9445742  29.0142694
  22.6786633  38.6565742  28.1372694  23.3547097  39.1654713  28.5906839
  20.8246633  37.1175742  28.5482694  20.6174328  37.0514803  27.4801928
  20.0626633  36.3715742  29.4572694  19.2653993  35.7220094  29.0959721
  17.7626633  37.5755742  31.9672694  16.9306633  37.1545742  31.1542694
  17.9436633  38.8875742  32.1862694  18.5009815  39.1473928  32.9875122
  17.2986633  39.9305742  31.4382694  16.3235509  39.6061939  31.0749065
  17.0966633  41.1435742  32.3852694  16.6123034  40.7717463  33.2881751
  18.0673492  41.5674533  32.6425540  16.2296633  42.2145742  31.7512694
  15.7606633  41.9805742  30.6092694  16.0626633  43.2735742  32.4042694
  18.1236633  40.1965742  30.1762694  19.1576633  40.8965742  30.1922694
  17.7146633  39.6015742  29.0452694  16.9578343  38.9400061  29.1434371
  18.3066633  39.7765742  27.7382694  19.3654133  39.5393479  27.8425346
  17.6786633  38.7955742  26.7242694  16.6203731  39.0263286  26.6023089
  18.1841766  38.8923301  25.7634391  17.7875600  37.7746800  27.0903510
  18.1966633  41.2045742  27.2012694  19.1286633  41.7015742  26.5662694
  17.0726633  41.9205742  27.4292694  16.3027905  41.4753361  27.9079743
  16.8806633  43.2825742  26.9202694  17.1703655  43.2862836  25.8694802
  15.4226633  43.8245742  27.0372694  15.3676170  44.7858428  26.5263566
  14.7494552  43.1172200  26.5529752  15.0386633  43.9885742  28.4002694
  14.1394935  44.3223378  28.4414452  17.8316633  44.2665742  27.5772694
  18.2606633  45.2365742  26.9542694  18.1736633  44.0255742  28.8582694
  17.6520197  43.3358097  29.3800091  19.2006633  44.7715742  29.5462694
  19.1462628  45.8262693  29.2765323  18.9996633  44.6415742  31.0692694
  17.9876317  44.9640342  31.3140363  19.1241684  43.5949758  31.3471729
  20.0106633  45.4995742  31.8422694  20.9522012  44.9507152  31.8612692
  20.1420161  46.4260788  31.2833081  19.5816633  45.8245742  33.2732694
  18.6531808  46.3944374  33.2375584  19.4130681  44.8893701  33.8071874
  20.6516633  46.6395742  33.9992694  21.5925587  46.0893747  33.9894293
  20.7844483  47.5945167  33.4907892  20.2366633  46.8795742  35.3962694
  20.1139845  45.9948338  35.8677395  20.9471856  47.4182356  35.8707185
  19.3650446  47.3897632  35.4056114  20.6506633  44.4245742  29.2182694
  21.4786633  45.3285742  29.0522694  21.0236633  43.1345742  29.1602694
  20.3231165  42.4077685  29.1272974  22.4256633  42.7435742  29.1322694
  23.0669561  43.5965706  29.3541700  22.6606633  41.6575742  30.2042694
  21.9832347  40.8219205  30.0285633  23.6907914  41.3029475  30.1699764
  22.4106633  42.1275742  31.6242694  21.3916633  41.8055742  32.4732694
  20.6417095  41.1154447  32.0867589  21.5416633  42.4515742  33.6842694
  20.9325020  42.3792773  34.4866379  22.6906633  43.2195742  33.6142694
  23.3036633  44.0465742  34.5552694  22.8479903  44.1228395  35.5425102
  24.4706633  44.7305742  34.1732694  24.9724332  45.3928550  34.8787558
  25.0056633  44.5755742  32.8912694  25.9003119  45.1187631  32.5868862
  24.4096633  43.7195742  31.9612694  24.8685039  43.6044674  30.9792733
  23.2496633  43.0515742  32.3382694  22.9386633  42.1585742  27.8272694
  24.1576633  42.0485742  27.6462694  22.0716633  41.7545742  26.8852694
  21.0781709  41.8137736  27.0572218  22.5216633  41.1035742  25.6692694
  23.3100671  40.3952939  25.9239409  21.3866633  40.3405742  24.9432694
  20.8138545  39.8217960  25.7119426  20.7569104  41.0916448  24.4664002
  21.8686633  39.3175742  23.8782694  21.0073373  39.0209471  23.2797456
  22.5824162  39.8487703  23.2485976  22.5356633  38.0705742  24.4652694
  22.4726633  37.8455742  25.7022694  23.1126633  37.2945742  23.6542694
  23.2246633  42.0355742  24.7032694  22.6986633  43.0815742  24.2992694
  24.4426633  41.6795742  24.2832694  24.8516809  40.8345784  24.6558093
  25.2296633  42.4785742  23.3832694  24.6933772  43.3908866  23.1221514
  26.5626633  42.8665742  24.0632694  26.3715661  43.3176483  25.0369805
  27.2386958  42.0198334  24.1820552  27.2966633  43.8905742  23.2532694
  26.7996633  45.1985742  23.1392694  25.8820577  45.4704997  23.6609556
  27.4716633  46.1495742  22.3642694  27.0662489  47.1561324  22.2614076
  28.6646633  45.8075742  21.7212694  29.2082645  46.5545713  21.1428293
  29.1606633  44.5035742  21.8212694  30.0861532  44.2331414  21.3129047
  28.4706633  43.5475742  22.5722694  28.8459395  42.5258960  22.6309315
  25.4166633  41.6675742  22.0992694  25.7256633  40.4775742  22.1812694
  25.2256633  42.1775742  20.8802694  24.6406633  43.4805742  20.5812694
  25.4295108  44.2326988  20.5699349  23.9118048  43.7308364  21.3521346
  23.9946633  43.2865742  19.2092694  23.9603691  44.2279637  18.6609002
  22.9850081  42.8883978  19.3100337  24.9166633  42.2725742  18.5232694
  25.7490678  42.7844565  18.0403841  24.3944708  41.6576730  17.7902542
  25.4416633  41.3875742  19.6752694  24.8483374  40.4768731  19.7570388
  26.9086633  41.0215742  19.4782694  27.7716633  41.8875742  19.5982694
  27.2136633  39.7475742  19.1262694  26.4630979  39.0718126  19.1164057
  28.5706633  39.2775742  18.8712694  29.1829775  39.4905235  19.7475245
  28.6366633  37.7485742  18.5772694  27.8623092  37.5301952  17.8418881
  29.6161713  37.5479648  18.1431959  28.4326633  36.8575742  19.8172694
  29.0431331  37.2783565  20.6162498  27.3796840  36.9271308  20.0902136
  28.8096633  35.3865742  19.6072694  28.3734444  34.9990356  18.6866034
  29.8919924  35.2611369  19.5767990  28.2656633  34.5985742  20.7672694
  28.9072750  34.4008493  21.5218147  26.9796633  34.2155742  20.8992694
  26.0726633  34.4295742  19.9552694  26.3390058  34.8955347  19.0996746
  25.1199038  34.1255708  20.0964462  26.6266633  33.5305742  21.9722694
  27.3177111  33.3046028  22.6733328  25.6673651  33.2359992  22.0865992
  29.3136633  40.0185742  17.7602694  30.5346633  40.1105742  17.7992694
  28.6096633  40.5835742  16.7562694  27.6061567  40.4692649  16.7589649
  29.2246633  41.2085742  15.6082694  30.1905714  40.7536870  15.3887284
  28.2856633  41.0035742  14.3782694  28.8686507  41.3884820  13.5415671
  28.1327516  39.9318425  14.2513475  26.9286633  41.7105742  14.4222694
  26.5266633  42.2275742  15.5002694  26.2566633  41.6875742  13.3642694
  29.6106633  42.6705742  15.8662694  30.2736633  43.3155742  15.0432694
  29.3096633  43.2135742  17.0632694  28.7616112  42.6595252  17.7057396
  29.7126633  44.5455742  17.4742694  30.0302000  45.1120198  16.5988215
  28.5586633  45.2985742  18.1542694  28.1805119  44.6946514  18.9791197
  28.9344398  46.2459569  18.5407380  27.4286633  45.5665742  17.1592694
  27.8510265  46.0749811  16.2925327  27.0120432  44.6079261  16.8502005
  26.3326633  46.4225742  17.7622694  26.0545864  46.1061616  18.7675829
  26.5825271  47.4835051  17.7719238  25.1666633  46.2145742  16.8562694
  25.3247750  45.7035333  15.9995680  23.9416633  46.6875742  17.0992694
  23.7176633  47.4895742  18.1372694  24.4802690  47.7442638  18.7485514
  22.7860737  47.8399061  18.3090486  22.9296633  46.3295742  16.3132694
  23.0933704  45.7029301  15.5382744  22.0023556  46.6860914  16.4951889
  30.8696633  44.4555742  18.4382694  31.2106633  45.4225742  19.1212694
  31.4846633  43.2625742  18.5142694  31.1621499  42.5421552  17.8841258
  32.5596633  42.9485742  19.4152694  32.8236395  43.8037117  20.0374876
  32.0596633  41.8075742  20.3302694  31.0210315  42.0608558  20.5428529
  32.0954192  40.9055734  19.7193552  32.8076633  41.5615742  21.6512694
  33.8582356  41.3867963  21.4192107  32.6876633  42.7515742  22.6142694
  31.6373337  42.9266825  22.8471722  33.2313844  42.5322879  23.5331718
  33.1089681  43.6416765  22.1470216  32.2056633  40.3075742  22.3062694
  32.3272009  39.4544687  21.6387823  32.7174120  40.1074965  23.2476426
  31.1449894  40.4704852  22.4973972  33.7746633  42.4985742  18.6162694
  33.7836633  41.4235742  18.0052694  34.8636633  43.2835742  18.5782694
  34.8636429  44.1712186  19.0601269  36.0426633  42.9105742  17.8282694
  35.7633735  42.1520284  17.0970344  36.6866633  44.1065742  17.0802694
  35.9476856  44.4503613  16.3565142  36.8517641  44.8832336  17.8270237
  38.0156633  43.8005742  16.3532694  38.3299904  44.7184633  15.8565009
  38.7462326  43.5326374  17.1165390  37.9156633  42.6635742  15.3162694
  37.7286113  41.7458076  15.8737773  37.0544399  42.8876485  14.6868376
  39.1566633  42.4825742  14.4372694  38.9816525  41.6921858  13.7073666
  39.3811953  43.4136878  13.9169695  40.2986633  42.1125742  15.2992694
  40.0909842  41.2495816  15.7811541  41.1241504  41.9902620  14.7303137
  40.4612700  42.8450294  15.9754110  37.0286633  42.3155742  18.7962694
  37.6486633  43.0235742  19.5892694  37.1986633  40.9815742  18.7752694
  36.5507125  40.4084286  18.2539602  38.1846633  40.3225742  19.6022694
  38.1507798  40.7462084  20.6060050  37.9266633  38.7995742  19.6992694
  38.1083116  38.4466879  18.6840973  38.6567125  38.3533638  20.3745652
  36.4976633  38.3905742  20.1402694  35.7617433  38.9284975  19.5426398
  36.3186633  36.8785742  19.9332694  37.0539871  36.3399312  20.5309829
  35.3152197  36.5853587  20.2418572  36.4596254  36.6363329  18.8799180
  36.1596633  38.7765742  21.5952694  36.2366361  39.8575484  21.7121856
  35.1440709  38.4576839  21.8297527  36.8591456  38.2875888  22.2732935
  39.6266633  40.6285742  19.1892694  39.9596633  40.7575742  17.9962694
  40.4966633  40.7895742  20.2032694  40.0928140  40.7291680  21.1270422
  41.9246633  41.0355742  20.0902694  42.1770871  41.0337599  19.0299024
  42.1238780  42.0220388  20.5089583  42.7806633  40.0205742  20.7992694
  42.5946633  38.8065742  20.6832694  43.8156633  40.4965742  21.5102694
  43.9535179  41.4970387  21.5231624  44.7976633  39.6595742  22.1682694
  45.0564429  38.8145150  21.5302983  46.0816633  40.4755742  22.4532694
  45.7895597  41.3913664  22.9671754  46.7189259  39.8801265  23.1070571
  46.8536633  40.8315742  21.1702694  47.2755119  39.9164139  20.7547863
  46.1552163  41.2663623  20.4552637  47.9836633  41.8325742  21.4552694
  47.5408688  42.6745419  21.9873620  48.7018713  41.3307908  22.1037214
  48.6986633  42.3415742  20.1992694  49.2026918  41.5110763  19.7049729
  47.9701167  42.7810888  19.5179867  49.6956633  43.3655742  20.5822694
  50.3710929  42.9583983  21.2132229  50.1676478  43.7018586  19.7550794
  49.2287707  44.1354162  21.0399307  44.2706633  38.9945742  23.4472694
  43.3356633  39.4995742  24.0732694  44.8006633  37.8545742  23.8832694
  45.8006633  37.0565742  23.1692694  46.6305554  37.7057943  22.8901769
  45.3421982  36.6466205  22.2693545  46.2136633  35.9695742  24.1592694
  47.1025347  36.2707761  24.7136015  46.4101086  35.0311399  23.6407603
  44.9946633  35.8405742  25.0822694  45.3138406  35.5136176  26.0718775
  44.2321142  35.1599072  24.7037051  44.4316633  37.2665742  25.1602694
  43.3441261  37.2753857  25.2329569  45.0236633  38.0195742  26.3402694
  46.1646633  38.4775742  26.2672694  44.2576633  38.1385742  27.4352694
  43.3308072  37.7396941  27.3913162  44.6716633  38.7775742  28.6652694
  45.5787998  39.3630861  28.5156755  43.5346633  39.7315742  29.1162694
  42.6580124  39.0838488  29.1221171  43.7215945  40.0982363  30.1255838
  43.2836633  40.9295742  28.1712694  43.1876964  40.5504286  27.1538512
  42.0036633  41.7005742  28.5552694  42.0990776  42.0804457  29.5724678
  41.8614980  42.5348013  27.8682797  41.1448097  41.0319596  28.4967427
  44.4916633  41.8785742  28.1102694  45.3633325  41.3350254  27.7457877
  44.2711465  42.7053128  27.4350088  44.6981907  42.2691735  29.1067018
  44.9046633  37.7315742  29.7412694  45.6076633  37.9625742  30.7272694
  44.3686633  36.5125742  29.5632694  43.7372871  36.3366226  28.7948265
  44.6776633  35.4195742  30.4622694  45.7576957  35.2932395  30.5375603
  44.2663627  35.6229325  31.4509941  44.0756633  34.1565742  29.9352694
  43.0156633  34.1845742  29.3092694  44.7386633  33.0085742  30.1412694
  45.6040306  33.0285272  30.6616928  44.2446633  31.7315742  29.6832694
  43.1873499  31.8359173  29.4397531  44.9916633  31.2075742  28.4312694
  46.0469775  31.1549708  28.6989334  44.6145719  30.2023612  28.2429906
  44.8266633  32.0625742  27.1632694  43.7633541  32.1687502  26.9483248
  45.2600273  33.0460511  27.3451232  45.5256633  31.4105742  25.9682694
  46.6049802  31.3896063  26.1190480  45.1606504  30.3947042  25.8170304
  45.2276633  32.2165742  24.7382694  44.6353512  33.0281538  24.8412462
  45.7086633  31.9255742  23.5202694  46.5146633  30.8825742  23.3292694
  46.7716591  30.2970296  24.1110562  46.8651709  30.6819851  22.4035221
  45.3816633  32.6715742  22.4682694  44.7663208  33.4637142  22.5864556
  45.7502700  32.4423185  21.5563102  44.4426633  30.6795742  30.7442694
  45.5086633  30.5935742  31.3642694  43.4206633  29.8355742  30.9542694
  42.5208159  30.0626167  30.5557399  43.5426633  28.6125742  31.7252694
  44.5124114  28.6009555  32.2228162  42.7506037  28.5832553  32.4735217
  43.4306633  27.4095742  30.8532694  43.6256633  27.4705742  29.6412694
  43.1026633  26.2465742  31.4482694  43.1140588  26.1718984  32.4554402
  42.8366633  25.0535742  30.6752694  43.6609652  24.9140468  29.9758713
  42.7896633  23.8395742  31.6322694  41.9635044  23.9603905  32.3329583
  42.6450831  22.9264617  31.0548420  43.7272292  23.7750397  32.1844511
  41.5616633  25.1795742  29.8262694  41.5886633  24.9535742  28.6102694
  40.4526633  25.6395742  30.4472694  40.5855920  26.0274806  31.3702850
  39.1116633  25.6415742  29.8852694  39.1103998  25.1334516  28.9209515
  38.1376633  24.9035742  30.8342694  38.0764614  25.4489563  31.7760294
  37.1375812  24.7874697  30.4165905  38.6256633  23.5265742  31.1672694
  38.9386633  22.6145742  30.1492694  38.8528296  22.9297930  29.1093802
  39.3556633  21.3175742  30.4532694  39.5923360  20.6184047  29.6512415
  39.4696633  20.9155742  31.7872694  39.8061990  19.9074377  32.0291463
  39.1506633  21.8105742  32.8122694  39.2313137  21.4976786  33.8532747
  38.7276633  23.1085742  32.5022694  38.4740558  23.8046772  33.3017842
  38.5266633  27.0285742  29.6882694  37.5426633  27.1905742  28.9682694
  39.1186633  28.0815742  30.2812694  39.9438399  27.9400758  30.8462128
  38.6066633  29.4335742  30.1362694  37.8068929  29.4348947  29.3956853
  38.2136781  29.7712206  31.0952569  39.6786633  30.3705742  29.6942694
  40.8756633  30.0725742  29.7672694  39.2776633  31.5595742  29.2472694
  38.2870131  31.7321518  29.1527786  40.1896633  32.5945742  28.8502694
  41.0576470  32.5897684  29.5095723  40.6736633  32.3765742  27.3912694
  41.3635265  33.1875198  27.1576988  41.2089059  31.4272915  27.3694141
  39.5346633  32.3505742  26.3432694  38.7670025  31.6458635  26.6629266
  39.1052703  33.3503746  26.2790603  40.0266633  31.9405742  24.9562694
  41.2056633  32.0785742  24.6062694  39.1036633  31.4015742  24.1242694
  39.3735898  31.1124880  23.1949308  38.1496548  31.2911780  24.4369705
  39.5276633  33.9435742  28.9832694  38.2946633  34.0515742  29.0142694
  40.3416633  35.0045742  29.0742694  41.3171378  34.8072789  29.2463839
  39.9236633  36.3905742  28.9992694  38.8487942  36.3821001  28.8184823
  40.2026633  37.2255742  30.2532694  41.2720367  37.1970285  30.4623740
  39.7566633  38.6905742  30.0522694  38.6872336  38.7199665  29.8435655
  39.9656549  39.2618910  30.9567140  40.3019017  39.1252185  29.2144741
  39.3966633  36.6215742  31.4142694  39.7060820  35.5885928  31.5733651
  39.5773461  37.1982535  32.3214046  38.3341527  36.6489232  31.1725586
  40.6336633  36.9795742  27.8022694  41.8516633  36.8375742  27.6472694
  39.8776633  37.6305742  26.9062694  38.8879470  37.6576555  27.1058379
  40.3476633  38.2345742  25.6732694  41.4342572  38.2053919  25.5922677
  39.7266633  37.5315742  24.4622694  38.6415899  37.5522834  24.5636954
  40.1336633  38.2315742  23.1482694  41.2186488  38.2108530  23.0459086
  39.6796071  37.7128971  22.3039307  39.7905718  39.2660228  23.1656894
  40.1326633  36.0365742  24.4602694  41.2215126  35.9946752  24.4877004
  39.7293399  35.5882651  25.3682610  39.6226633  35.2635742  23.2392694
  40.0259666  35.7110473  22.3308565  39.9449646  34.2244450  23.3058398
  38.5337933  35.3046392  23.2114159  40.0086633  39.7165742  25.6992694
  38.9186633  40.1105742  26.1252694  40.9486633  40.5955742  25.2902694
  41.8845891  40.2410021  25.1545462  40.7106633  42.0155742  25.0752694
  40.1794045  42.4296860  25.9322261  42.0396633  42.7805742  24.9022694
  42.6937910  42.4662462  25.7155431  42.4658148  42.4631607  23.9505638
  41.9026633  44.3225742  24.9172694  41.3154563  44.6157922  24.0470327
  41.3708419  44.6051818  25.8257836  43.2586633  45.0305742  24.8792694
  44.3076633  44.3355742  24.7992694  43.2446633  46.2855742  24.9322694
  39.8346633  42.2445742  23.8572694  39.9666633  41.5475742  22.8472694
  38.9066633  43.2085742  23.8852694  38.7741729  43.8031230  24.6909104
  38.0746633  43.4225742  22.7392694  38.6231579  43.1928454  21.8257720
  36.8226633  42.5225742  22.8022694  36.2581320  42.7473604  23.7071869
  36.1971489  42.7077258  21.9290278  37.1271335  41.4760413  22.8151562
  37.6156633  44.8385742  22.6752694  37.4776633  45.5035742  23.7142694
  37.3246633  45.3205742  21.4682694  37.5554730  44.7481778  20.6687767
  36.7096633  46.5995742  21.2362694  36.8780113  47.2366660  22.1045275
  37.2856633  47.3045742  19.9872694  37.1958166  46.6051524  19.1561040
  36.7099535  48.2039098  19.7685144  38.7456633  47.6735742  20.1822694
  39.0936633  48.1245742  21.3002694  39.5066633  47.5335742  19.1882694
  35.2266633  46.3535742  21.0402694  34.8246633  45.5575742  20.1802694
  34.3656633  47.0015742  21.8372694  34.7541237  47.6308952  22.5251305
  32.9306633  46.8555742  21.7762694  32.6522542  46.0791810  21.0636677
  32.3666633  46.4775742  23.1632694  32.6295187  47.2501846  23.8858207
  31.2817760  46.3906706  23.1035387  32.7900364  45.5246820  23.4808397
  32.2946633  48.1595742  21.3282694  32.5276633  49.2195742  21.9172694
  31.4636633  48.1325742  20.2702694  31.3106666  47.2574845  19.7897392
  30.8246633  49.3265742  19.7462694  31.4296683  50.1988980  19.9934925
  30.6686633  49.2525742  18.2072694  31.6346641  49.0313920  17.7533751
  29.9392657  48.5076473  17.8892078  30.2136633  50.5765742  17.6332694
  31.1066633  51.6535742  17.5512694  32.1279931  51.5280843  17.9107656
  30.6996633  52.8795742  17.0152694  31.4098349  53.7034989  16.9452336
  29.3866633  53.0495742  16.5702694  29.0723979  54.0010013  16.1411731
  28.4756633  51.9965742  16.6762694  27.4468777  52.1291197  16.3414079
  28.8846633  50.7695742  17.2132694  28.1706415  49.9516384  17.3094661
  29.4656633  49.5755742  20.3842694  28.4776633  48.8935742  20.0902694
  29.3726633  50.5955742  21.2612694  30.2097784  51.0916018  21.5319984
  28.1066633  51.0145742  21.8382694  28.2571458  52.0264788  22.2144387
  27.3851848  51.0346928  21.0214687  27.5666633  50.1565742  22.9462694
  26.3546633  50.0815742  23.1192694  28.4486633  49.4825742  23.7172694
  29.3945529  49.4143053  23.3698051  28.0626633  48.6385742  24.8452694
  27.1499070  48.0691958  24.6698175  29.1766633  47.6885742  25.3142694
  29.5244565  47.1271178  24.4471437  30.3706633  48.4385742  25.9562694
  30.0237122  48.9999298  26.8237978  31.1270030  47.7185837  26.2687826
  30.8025059  49.1256223  25.2285497  28.5896633  46.5715742  26.2182694
  28.5227380  46.9794068  27.2268795  27.5879269  46.3543520  25.8475428
  29.4166633  45.2795742  26.2432694  30.4184555  45.4959317  26.6143511
  28.9362767  44.5526927  26.8982283  29.4836462  44.8708780  25.2350132
  27.3626633  49.3695742  25.9922694  26.3776633  48.8605742  26.5222694
  27.8106633  50.5885742  26.3772694  28.6515343  50.9636815  25.9621432
  27.1966633  51.3205742  27.4642694  26.2140245  50.9122388  27.7004524
  28.1066633  51.1875742  28.7222694  27.4442437  51.6161750  29.4743338
  28.2839910  50.1367985  28.9514533  29.4286633  51.9365742  28.7262694
  30.2596633  51.7825742  27.7932694  29.6976633  52.5955742  29.7622694
  26.8866633  52.7585742  27.0982694  25.8606633  53.3165742  27.4922694
  27.7166633  53.3755742  26.2422694  28.5726779  52.9147081  25.9685163
  27.4556633  54.6945742  25.7252694  26.6100645  55.1454601  26.2446573
  28.6976633  55.5825742  25.9422694  29.0836359  55.3576840  26.9365273
  29.4344679  55.2930580  25.1930036  28.4186633  57.0895742  25.8302694
  28.1906698  57.3296465  24.7917680  27.5614258  57.3368696  26.4564411
  29.6396633  57.9045742  26.2882694  29.7994848  57.6701168  27.3406884
  30.4909066  57.5534509  25.7050056  29.4956633  59.4205742  26.1192694
  29.3136403  59.6513470  25.0696446  28.6564107  59.7727870  26.7190198
  30.7396633  60.0955742  26.5652694  31.5173861  59.7696644  26.0093651
  30.6399660  61.0942402  26.4520144  30.9082822  59.8822104  27.5379680
  27.1016633  54.5975742  24.2512694  27.8006633  53.9415742  23.4732694
  25.9866633  55.2255742  23.8232694  25.4746251  55.7596147  24.5108136
  25.4476633  55.1465742  22.4622694  25.1663993  54.1077915  22.2892946
  24.2266633  56.0215742  22.2482694  24.5493397  57.0626619  22.2590703
  23.5206633  55.7175742  20.9152694  23.1972668  54.6767162  20.9039161
  22.6530132  56.3682882  20.8063948  24.2108916  55.8920661  20.0898979
  23.2776633  55.7825742  23.2712694  22.5081042  56.3388728  23.1301631
  26.3896633  55.5005742  21.3392694  26.8386633  56.6625742  21.2352694
  26.6886633  54.5415742  20.4572694  26.3313191  53.6264077  20.6915230
  27.5996633  54.6575742  19.3332694  27.6126202  53.6421623  18.9372012
  27.0316633  55.6045742  18.2482694  27.0208839  56.6266616  18.6268471
  27.6577266  55.5542204  17.3574218  26.0158917  55.3005560  17.9955238
  29.0476633  54.9995742  19.7032694  29.7796633  55.6005742  18.9132694
  29.5346633  54.5545742  20.8772694  28.9620893  53.9736460  21.4729042
  30.8866633  54.8805742  21.3212694  31.2839337  55.5723061  20.5784489
  30.9196633  55.5585742  22.6842694  30.5024143  54.8605991  23.4101029
  32.3316633  55.9665742  23.1212694  32.7494145  56.6649537  22.3961145
  32.2858983  56.4440124  24.1000735  32.9648396  55.0811990  23.1787058
  30.1996633  56.7805742  22.6642694  30.2355300  57.1873574  23.5330854
  31.6736633  53.6025742  21.4212694  31.2676633  52.6535742  22.0942694
  32.8256633  53.5075742  20.7242694  33.0322048  54.1819833  20.0013501
  33.7206633  52.3745742  20.8852694  33.1344772  51.4560738  20.8562493
  34.8026633  52.3095742  19.7682694  34.3575032  52.5269565  18.7973540
  35.5989372  53.0258182  19.9708588  35.6136633  50.6865742  19.6002694
  36.4182511  51.0360238  18.6005586  34.3426633  52.3375742  22.2732694
  34.7006633  53.3765742  22.8422694  34.4486633  51.1445742  22.8632694
  34.1380832  50.3266577  22.3586388  34.9976633  50.9655742  24.1782694
  35.6382858  51.8067007  24.4432377  33.8426633  50.8855742  25.1972694
  33.3516363  51.8587091  25.1977990  33.1483574  50.1290533  24.8315980
  34.2786633  50.5315742  26.6272694  34.4010868  49.4498127  26.6811712
  35.2376899  51.0149667  26.8135533  33.2726633  50.9805742  27.6762694
  33.1378035  52.0621793  27.6827723  32.3044575  50.4949561  27.5544000
  33.8566633  50.5625742  28.9882694  34.7748799  50.1431941  29.0214044
  33.1836633  50.7195742  30.1362694  31.9686633  51.2265742  30.1352694
  31.5394634  51.4997066  29.2627523  31.4714014  51.3400417  31.0070236
  33.7386633  50.3755742  31.2972694  34.6735038  49.9935751  31.3130804
  33.2221031  50.4983130  32.1564548  35.7956633  49.6895742  24.2652694
  35.2936633  48.6115742  23.9392694  37.0496633  49.7815742  24.7532694
  37.4396980  50.7059962  24.8690976  37.8706633  48.6335742  25.1212694
  37.8990933  47.9759383  24.2524737  39.3046633  49.0005742  25.5032694
  39.3019838  49.4783408  26.4829796  40.1816633  47.7385742  25.5512694
  40.1852059  47.2604833  24.5717205  41.2004019  48.0136181  25.8244390
  39.7819852  47.0456932  26.2917246  39.9606633  49.8705742  24.5852694
  40.8508742  50.0511631  24.8959341  37.2926633  47.8845742  26.3222694
  37.0016633  48.4775742  27.3672694  37.1126633  46.5575742  26.2122694
  37.4149406  46.1420615  25.3427426  36.4836633  45.7015742  27.2022694
  36.5003973  46.1738283  28.1845093  35.0316633  45.3165742  26.8662694
  34.6465957  44.6521374  27.6397977  34.1576633  46.5835742  26.7962694
  34.5418644  47.2483378  26.0225900  33.1311698  46.3048044  26.5581537
  34.1807876  47.0951654  27.7584759  34.9346633  44.5155742  25.5502694
  35.5174795  43.5987158  25.6385754  33.8923552  44.2653110  25.3526288
  35.3255680  45.1162909  24.7290303  37.2966633  44.4355742  27.3832694
  38.2036633  44.1295742  26.5982694  37.0106633  43.6585742  28.4382694
  36.3676080  44.0187109  29.1288350  37.5946633  42.3615742  28.6602694
  38.3251173  42.1017455  27.8940937  38.2886633  42.3115742  30.0422694
  37.5675440  42.5606231  30.8207690  38.6795888  41.3092134  30.2170559
  39.1084498  43.0296130  30.0639385  36.4756633  41.3485742  28.5582694
  35.3986633  41.5235742  29.1582694  36.6606633  40.2855742  27.7722694
  37.5762200  40.1807090  27.3589192  35.6596633  39.2805742  27.4862694
  34.7085825  39.5365465  27.9531985  35.4376633  39.1165742  25.9862694
  36.3601278  38.7623734  25.5261604  34.3076633  38.1005742  25.7202694
  33.3846996  38.4543394  26.1797140  34.1601539  37.9935185  24.6456157
  34.5785921  37.1349811  26.1472696  35.0986633  40.4895742  25.3752694
  35.9239196  41.1796880  25.5507601  34.9384178  40.3809192  24.3026021
  34.1934591  40.8809364  25.8395343  36.0986633  37.9485742  28.0272694
  37.1256633  37.3935742  27.6142694  35.3316633  37.3785742  28.9632694
  34.5665323  37.9134165  29.3487789  35.5826633  36.0685742  29.4952694
  36.6264618  35.8031574  29.3275262  35.2996633  36.0165742  31.0022694
  35.8041018  36.8732404  31.4492191  34.2221561  36.1246976  31.1263166
  35.7676633  34.7285742  31.6952694  35.0737987  33.9152262  31.4828598
  36.7638069  34.4560247  31.3466771  35.8076633  34.9845742  33.2082694
  36.5856199  35.7337809  33.3551425  34.8374865  35.4157294  33.4551736
  36.0786633  33.7815742  34.1192694  35.3524456  32.9946348  33.9157138
  37.0845772  33.4024530  33.9389821  35.9586633  34.2105742  35.5332694
  35.0265003  34.5615110  35.7006472  36.1359413  33.4229937  36.1402204
  36.6317989  34.9394696  35.7222114  34.7596633  35.0505742  28.7622694
  33.5576633  35.2395742  28.5222694  35.3936633  33.9525742  28.3602694
  36.3693193  33.8357079  28.5938009  34.7576633  32.9385742  27.5772694
  33.7298353  32.8053336  27.9147836  34.7396633  33.3315742  26.0792694
  34.1727411  32.5616588  25.5558875  34.2122651  34.2827416  26.0069378
  36.1326633  33.4675742  25.4382694  36.7704815  34.0042233  26.1406200
  36.5270250  32.4631054  25.2845703  36.1156633  34.3495742  23.8552694
  35.3466633  33.0325742  22.8742694  34.3652708  32.7976960  23.2863374
  35.2366841  33.3647560  21.8419611  35.9751334  32.1424939  22.9039923
  35.4886633  31.6465742  27.7682694  36.5496633  31.5845742  28.4052694
  34.9276633  30.5595742  27.2372694  33.9835375  30.6218899  26.8839387
  35.5806633  29.2755742  27.2182694  36.1650685  29.1610096  28.1312013
  34.5726633  28.1145742  27.1302694  34.1091293  28.2363443  26.1512865
  35.1014448  27.1620736  27.1653807  33.4846633  28.1375742  28.2192694
  32.8732283  29.0332612  28.1097568  32.6016633  26.8955742  28.0682694
  33.2123582  25.9994261  28.1781290  31.8279236  26.9037096  28.8359683
  32.1353062  26.8982893  27.0830770  34.0476633  28.2275742  29.6512694
  34.6319364  29.1418020  29.7557293  33.2245780  28.2393885  30.3657569
  34.6851858  27.3652694  29.8464472  36.5836633  29.1805742  26.0852694
  36.6066633  29.9895742  25.1492694  37.4556633  28.1725742  26.1412694
  37.5031522  27.6280926  26.9906126  38.3436633  27.8295742  25.0592694
  38.0457963  28.3965631  24.1772841  39.8326633  28.1365742  25.3662694
  40.4153724  27.6788523  24.5668697  39.9422325  29.2200846  25.3204454
  40.3376633  27.6295742  26.7202694  39.7606721  28.1247568  27.5012792
  40.1604962  26.5549719  26.7643581  41.8316633  27.9105742  26.9322694
  41.9745662  28.9708893  26.7239197  42.0310970  27.7178580  27.9863975
  42.7956633  27.0865742  26.0712694  42.7031444  27.4005142  25.0315663
  43.8162120  27.2592664  26.4129664  42.4766633  25.6485742  26.1812694
  41.5311860  25.4882757  25.8642885  43.1179366  25.1168407  25.6101932
  42.5627494  25.3573707  27.1445393  38.2056633  26.3595742  24.7752694
  37.5696633  25.6235742  25.5332694  38.8066633  25.9005742  23.6602694
  39.2191067  26.5907509  23.0490036  38.8466633  24.5085742  23.2522694
  37.8441657  24.1570607  23.0082691  39.7426633  24.3635742  21.9942694
  39.3742122  25.0861234  21.2660760  40.7523685  24.6384959  22.2992504
  39.7626633  22.9525742  21.3562694  40.3919974  23.0298919  20.4696684
  40.1873208  22.2171864  22.0396214  38.3606633  22.5155742  20.9472694
  37.5456633  23.4005742  20.5832694  38.0906633  21.2955742  21.0592694
  39.3386633  23.5735742  24.3502694  40.3326633  23.8655742  25.0362694
  38.5966633  22.4625742  24.5492694  37.8708680  22.2996651  23.8660556
  38.7496633  21.5045742  25.6362694  38.6324626  20.5063442  25.2144873
  39.7590045  21.6147110  26.0327532  37.7566633  21.6825742  26.7622694
  37.6236633  20.7995742  27.5982694  37.0286633  22.8185742  26.8212694
  37.2989677  23.5935657  26.2326923  35.9306633  23.0125742  27.7562694
  36.3447338  22.7640271  28.7334434  35.4816633  24.4855742  27.7722694
  35.0563653  24.7468598  26.8032743  34.7301679  24.6284672  28.5487593
  36.3402044  25.1254597  27.9761144  34.7136633  22.1205742  27.5182694
  34.3796633  21.7795742  26.3792694  34.0036633  21.7235742  28.5912694
  34.4528444  21.8124539  29.4915116  32.7736633  20.9555742  28.5082694
  32.6500831  20.7499151  27.4450049  32.7416633  19.6105742  29.2802694
  32.0330203  18.9333570  28.8035070  34.1406633  18.9805742  29.2642694
  34.8498169  19.6570586  29.7413121  34.1201870  18.0351628  29.8063738
  34.4472214  18.8013273  28.2337388  32.4226633  19.6135742  30.6712694
  32.4428283  18.7140931  31.0061237  31.5696633  21.8295742  28.7592694
  31.6506633  23.0385742  29.0422694  30.3606633  21.2585742  28.6432694
  30.3030678  20.3457927  28.2147696  29.1286633  21.9075742  29.0462694
  29.0430203  22.8705774  28.5428916  27.9046633  21.0495742  28.6782694
  27.8650644  20.7420838  27.6332905  27.9177505  20.1658831  29.3162497
  26.6296633  21.7595742  28.9612694  26.4026633  22.9635742  28.3302694
  26.9714289  23.4384358  27.6438936  25.2636633  23.3885742  28.8112694
  24.8975861  24.3433528  28.4337985  24.7356633  22.5275742  29.7222694
  25.6246633  21.4755742  29.8172694  25.4189035  20.6477382  30.4958353
  29.0866633  22.2245742  30.5502694  28.3826633  23.1235742  31.0002694
  29.8566633  21.4935742  31.3912694  30.3083451  20.6587532  31.0460785
  29.9706633  21.8045742  32.8122694  28.9683522  21.9336092  33.2207076
  30.6916633  20.7005742  33.6142694  31.6379346  20.4686311  33.1255240
  30.8842213  21.0645880  34.6234846  29.8846633  19.5165742  33.6792694
  30.3472436  18.8411780  34.1807265  30.6346633  23.1405742  33.0822694
  30.1356633  23.9215742  33.8962694  31.7236633  23.4785742  32.3642694
  32.1955749  22.7453245  31.8546189  32.3306633  24.8005742  32.3912694
  32.4525270  25.1099966  33.4292994  33.7156633  24.8305742  31.7002694
  33.6000589  24.3786581  30.7151264  34.0033141  25.8759644  31.5883926
  34.8156633  24.0735742  32.4902694  35.7571980  24.3629421  32.0234939
  34.8331241  24.3504575  33.5443709  34.6286633  22.5655742  32.3642694
  34.5666633  22.0905742  31.2022694  34.4646633  21.8905742  33.4062694
  31.4226633  25.9005742  31.8282694  31.3796633  27.0115742  32.3402694
  30.6316633  25.5945742  30.7682694  30.7922067  24.7122938  30.3036121
  29.6266633  26.4995742  30.2102694  30.0937022  27.4511013  29.9561632
  28.9916633  25.9025742  28.9302694  29.7546460  25.7848163  28.1607958
  28.5520566  24.9312578  29.1569641  27.9056633  26.7335742  28.3312694
  28.1676633  27.5685742  27.2602694  29.0373657  27.7319062  26.7734018
  27.0126633  28.1325742  26.9882694  26.9980813  28.8368584  26.1564821
  26.0236633  27.7175742  27.8222694  26.6046633  26.8155742  28.6872694
  26.0038399  26.3381893  29.4613599  28.5396633  26.8675742  31.2092694
  28.1466633  28.0225742  31.3372694  28.0636633  25.8705742  31.9872694
  28.2899674  24.9185540  31.7371829  27.1916633  26.0945742  33.1282694
  26.3009234  26.6301459  32.7998725  26.7536633  24.7595742  33.7832694
  27.6433360  24.1372634  33.8797631  26.3664629  24.9952108  34.7745571
  25.6816633  24.0005742  32.9812694  24.9007138  24.7195921  32.7338184
  26.1573599  23.6517845  32.0646667  25.0616633  22.8065742  33.7222694
  24.8321717  23.0597564  34.7573208  24.1563121  22.4593636  33.2243904
  26.0806633  21.6875742  33.7112694  26.9931707  21.9393309  34.0634741
  25.8786633  20.4265742  33.3002694  24.6806633  20.0255742  32.8792694
  23.9089046  20.6769914  32.8672595  24.5492758  19.0718521  32.5738988
  26.8736633  19.5365742  33.2852694  27.7974005  19.8112546  33.5875278
  26.6981176  18.5926591  32.9717303  27.8116633  26.9785742  34.2012694
  27.1656633  27.8945742  34.6942694  29.0986633  26.7545742  34.5502694
  29.5610556  25.9323301  34.1894269  29.8216633  27.5955742  35.4852694
  29.2692098  27.5866948  36.4248521  31.2246633  27.0005742  35.7322694
  31.7932123  27.0110915  34.8023547  31.7452931  27.5956106  36.4825870
  31.1274561  25.9743343  36.0865034  29.9276633  29.0545742  35.0322694
  29.6766633  29.9725742  35.8112694  30.2386633  29.2975742  33.7412694
  30.5432413  28.5131880  33.1826373  30.2916633  30.6265742  33.1512694
  30.9017654  31.2855682  33.7690084  30.9186633  30.5535742  31.7362694
  31.8607963  30.0363585  31.9178528  30.2945252  29.9499496  31.0773391
  31.2016633  31.9215742  31.0682694  30.2442283  32.4140025  30.8981707
  32.1016633  32.8315742  31.9282694  33.0595189  32.3399833  32.0984160
  32.2656846  33.7761042  31.4095587  31.6168865  33.0228138  32.8856196
  31.8006633  31.7465742  29.6612694  31.1010493  31.1940159  29.0341179
  31.9871866  32.7260221  29.2208240  32.7385504  31.1955781  29.7310548
  28.9396633  31.3565742  33.1432694  28.8496633  32.5535742  33.4272694
  27.8226633  30.6465742  32.8582694  27.9359097  29.7073468  32.5045372
  26.4716633  31.1855742  32.9692694  26.4019719  32.1098164  32.3956680
  25.4206633  30.1845742  32.4252694  25.7281130  29.9272571  31.4116808
  25.4756241  29.2981165  33.0571492  23.9656633  30.7135742  32.4042694
  23.3682983  29.9490631  31.9075011  23.6545186  30.7973627  33.4455525
  23.7046633  32.3155742  31.5692694  24.3246633  31.8375742  29.9352694
  23.7278419  31.0123704  29.5467568  24.2541046  32.6874512  29.2564239
  25.3655632  31.5249305  30.0182295  26.0936633  31.5775742  34.3942694
  25.4876633  32.6165742  34.6472694  26.4796633  30.7375742  35.3742694
  26.7869953  29.8124258  35.1101734  26.3556633  31.0455742  36.7932694
  25.3315596  31.3581637  36.9972270  26.6896633  29.8345742  37.6902694
  27.6970494  29.4816750  37.4695104  26.6293082  30.1271616  38.7385298
  25.7506633  28.7865742  37.4332694  25.9544878  28.0308912  37.9891458
  27.1676633  32.2645742  37.2142694  26.6616633  33.1175742  37.9392694
  28.4166633  32.4275742  36.7132694  28.8166856  31.6338555  36.2335902
  29.2486633  33.6165742  36.9002694  29.3890327  33.8014301  37.9652689
  30.6456633  33.4245742  36.2402694  31.1685605  32.6802945  36.8408737
  30.4612009  33.0224471  35.2440930  31.5166633  34.7025742  36.1282694
  31.0236526  35.3396927  35.3940206  31.5080986  35.1955477  37.1003821
  32.9436633  34.4555742  35.7022694  33.3696633  33.3085742  35.4222694
  33.6906633  35.4705742  35.6642694  28.5806633  34.8845742  36.3902694
  28.5196633  35.8905742  37.1042694  27.9616633  34.8495742  35.1882694
  28.0679273  34.0227397  34.6180484  27.1896633  35.9595742  34.6552694
  27.8186570  36.8425512  34.5420541  26.6306633  35.5655742  33.2592694
  27.5463555  35.4915840  32.6726415  26.1510882  34.5879642  33.3081216
  25.6716633  36.5765742  32.5912694  24.8088009  36.7010235  33.2455489
  26.3286633  37.9445742  32.3442694  27.1913915  37.8209895  31.6896507
  25.6089170  38.6141755  31.8734189  26.6521032  38.3697353  33.2943878
  25.0736633  36.0005742  31.2952694  24.5172056  35.0916262  31.5238912
  24.4029346  36.7335032  30.8468953  25.8767550  35.7681000  30.5959137
  26.0416633  36.3735742  35.5752694  25.8706633  37.5405742  35.9102694
  25.2636633  35.3905742  36.0652694  25.3821787  34.4657381  35.6770277
  24.1896633  35.6045742  37.0172694  23.5415166  36.4162331  36.6867926
  23.3556633  34.3245742  37.1232694  24.0258026  33.4716317  37.2305149
  22.7110571  34.3919639  37.9996492  22.4946633  34.1425742  35.8692694
  21.7608326  34.9479381  35.8379250  23.1434636  34.2087148  34.9958935
  21.7726633  32.7955742  35.8662694  22.5047196  32.0191327  35.6441634
  21.3591651  32.6304458  36.8611821  20.6506633  32.7455742  34.8352694
  20.0666833  33.6649056  34.8788332  21.0708664  32.6296681  33.8362227
  19.7786633  31.5945742  35.1382694  19.3888514  31.7019941  36.0638003
  19.0307559  31.5513192  34.4608747  20.3195059  30.7425595  35.0975350
  24.6186633  36.0965742  38.3862694  23.9486633  36.9445742  38.9862694
  25.7516633  35.6165742  38.9272694  26.1542237  34.7842176  38.5207882
  26.3506633  36.1505742  40.1412694  25.6230098  36.2290742  40.9490177
  27.5246633  35.2855742  40.5962694  28.1580340  35.0889800  39.7312303
  28.3606633  35.9755742  41.7012694  27.7280376  36.1720821  42.5668733
  29.1844139  35.3246355  41.9942104  28.7590662  36.9165786  41.3219477
  27.0236633  33.9005742  41.0802694  26.6037447  34.0253119  42.0783725
  26.2422227  33.5684441  40.3967932  28.1446633  32.8515742  41.1242694
  28.9263083  33.1828125  41.8079448  27.7395821  31.9004486  41.4697671
  28.5647880  32.7259464  40.1263652  26.7366633  37.6225742  39.9872694
  26.4106633  38.4405742  40.8392694  27.3746633  38.0175742  38.8592694
  27.7341843  37.3086245  38.2361849  27.6796633  39.4145742  38.5672694
  28.1927185  39.8622337  39.4184300  28.5906633  39.5325742  37.3232694
  28.1155631  38.8856385  36.5858053  28.5955029  40.5588609  36.9561015
  30.0436633  39.0635742  37.5592694  30.0269195  38.0969119  38.0626425
  30.7916633  38.9315742  36.2202694  30.8092243  39.8980113  35.7164939
  31.8134696  38.6003152  36.4054181  30.2826725  38.2028000  35.5894628
  30.7996633  40.0035742  38.5202694  30.2878626  40.0286362  39.4823148
  31.8173637  39.6391095  38.6601003  30.8288195  41.0082590  38.0985381
  26.4496633  40.3045742  38.4262694  26.4146633  41.4155742  38.9602694
  25.3796633  39.8275742  37.7542694  25.4929216  38.9929100  37.1969476
  24.0906633  40.5215742  37.7112694  24.2350568  41.5577475  37.4053370
  23.1006633  39.8395742  36.7562694  22.9938518  38.7950722  37.0490276
  21.7146633  40.5345742  36.8062694  21.8206003  41.5790694  36.5131691
  21.0311982  40.0330123  36.1211330  21.3169491  40.4806711  37.8196879
  23.6406633  39.8485742  35.3072694  23.5434746  40.8672022  34.9317002
  24.6955170  39.5778537  35.3530244  22.9066633  38.8855742  34.3672694
  21.8517642  39.1559688  34.3206377  23.3417447  38.9483890  33.3698439
  23.0038048  37.8666200  34.7419635  23.4546633  40.6875742  39.0962694
  22.9796633  41.7725742  39.4392694  23.4596633  39.6265742  39.9372694
  23.8273682  38.7589406  39.5738077  22.9696633  39.6485742  41.3122694
  21.9296288  39.9746947  41.3208123  23.0536633  38.2445742  41.9622694
  22.4214575  37.4866166  41.4997595  24.1001889  37.9599989  41.8531779
  22.7516633  38.2165742  43.4342694  21.4506633  38.3675742  43.8812694
  21.5466633  38.4045742  45.1902694  20.6135691  38.5105130  45.7436330
  22.8306633  38.3005742  45.6202694  23.1854321  38.3064408  46.5658933
  23.6046633  38.1795742  44.4862694  24.6866761  38.0804085  44.5729625
  23.7306633  40.5895742  42.2322694  23.1296633  41.3095742  43.0292694
  25.0766633  40.6095742  42.1732694  25.5279769  39.9132943  41.5974138
  25.9186633  41.5025742  42.9702694  25.6610299  41.4415441  44.0276244
  27.4026633  41.1745742  42.7872694  27.5697677  41.0158013  41.7219208
  28.3596633  42.2845742  43.3012694  28.1934579  42.4435975  44.3667214
  29.3929426  41.9789323  43.1368990  28.1651851  43.2113206  42.7614375
  27.7066633  39.8425742  43.5042694  27.8215729  40.0490959  44.5683396
  26.8579608  39.1753782  43.3537597  28.9776633  39.1775742  42.9742694
  29.8269326  39.8440296  43.1248633  29.1499603  38.2437120  43.5093529
  28.8633212  38.9703140  41.9102821  25.6256633  42.9565742  42.6602694
  25.3726633  43.7485742  43.5672694  25.5386633  43.3155742  41.3652694
  25.6467393  42.6178664  40.6430349  25.2916633  44.6885742  40.9642694
  24.8477218  44.6694429  39.9689558  24.5810806  45.1183658  41.6702798
  26.5286633  45.5445742  40.9322694  27.6576633  45.0895742  41.0922694
  26.3436633  46.8435742  40.6582694  25.4060121  47.2008419  40.5430765
  27.4496633  47.7535742  40.4782694  28.2548633  47.2636587  39.9307890
  26.9846633  48.9835742  39.6742694  26.7577321  48.7470135  38.6347308
  26.0848910  49.3514477  40.1674013  27.9496633  50.1135742  39.6522694
  29.0606633  50.0135742  38.8482694  29.3210547  49.2732471  38.2124928
  29.7436633  51.1095742  39.0762694  30.6732323  51.2340303  38.5208318
  29.1386633  51.9105742  39.9962694  27.9796633  51.2615742  40.3662694
  27.3150540  51.7111165  41.1040414  28.0666633  48.2275742  41.7712694
  27.3876633  48.6755742  42.6952694  29.4046633  48.2145742  41.8142694
  29.9122429  47.6681270  41.1331984  30.1496633  48.9035742  42.8222694
  29.5960740  49.7952034  43.1166084  30.3976633  48.0395742  44.0782694
  29.4842635  47.5634728  44.4348190  31.1253123  47.2735343  43.8102958
  30.9686633  48.7835742  45.2332694  32.3396633  48.8835742  45.3932694
  33.0784968  48.5439376  44.7942105  32.4996633  49.5345742  46.5252694
  33.5249538  49.7154958  46.8479855  31.3116633  49.8695742  47.0972694
  30.3286633  49.3845742  46.2602694  29.2781039  49.5334576  46.5097891
  31.4316633  49.3135742  42.1572694  31.8936633  48.6455742  41.2192694
  32.0436633  50.4245742  42.5842694  31.5734329  50.9384839  43.3156240
  33.2836633  50.9635742  42.0512694  33.1816584  51.1826520  40.9883964
  33.6186633  52.2795742  42.7982694  32.7822980  52.9259606  42.5322298
  33.6039471  52.0904992  43.8716445  34.9476633  52.9725742  42.4152694
  35.7582667  52.2838113  42.6532368  35.0246633  53.3605742  40.9282694
  34.2145934  54.0497344  40.6896402  35.9816712  53.8419200  40.7269173
  34.9323473  52.4653112  40.3133854  35.1826633  54.2095742  43.2982694
  35.2298884  53.9063584  44.3441802  36.1217923  54.6852501  43.0156560
  34.3631058  54.9151054  43.1617037  34.4496633  49.9875742  42.1632694
  35.2956633  49.8985742  41.2662694  34.4946633  49.2205742  43.2712694
  33.7176131  49.3029302  43.9111990  35.5946633  48.3595742  43.6372694
  36.4771742  48.6015561  43.0450547  35.9326633  48.5605742  45.1322694
  35.0712121  48.2891628  45.7424637  36.7913259  47.9579750  45.4283651
  36.2596633  50.0265742  45.3772694  35.6356633  50.7005742  46.2072694
  37.2526633  50.5425742  44.6202694  37.5190471  51.5102170  44.7334366
  37.7241189  49.9583391  43.9446217  35.3166633  46.8955742  43.3422694
  36.0436633  46.0175742  43.8022694  34.2946633  46.5925742  42.5262694
  33.6757942  47.3465846  42.2644130  34.0156633  45.2635742  42.0132694
  34.7733666  44.5566616  42.3512922  32.6376633  44.7485742  42.4452694
  31.8956771  45.5009528  42.1779078  32.2766633  43.4055742  41.7682694
  33.0179972  42.6525252  42.0355562  31.2921680  43.0812176  42.1054080
  32.2650587  43.5351886  40.6860647  32.6346633  44.5925742  43.9802694
  32.8335978  45.5584794  44.4445477  31.6612733  44.2266189  44.3069012
  33.4069999  43.8822612  44.2753159  34.1006633  45.4255742  40.5102694
  33.6776633  46.4535742  39.9792694  34.7046633  44.4755742  39.7682694
  35.2408710  43.7627801  40.2420892  34.7746633  44.5405742  38.3102694
  35.1657985  45.4799208  37.9194492  35.5946633  43.3835742  37.7192694
  36.5649796  43.3796349  38.2158275  34.9166633  42.0005742  37.8992694
  33.9464265  42.0035931  37.4025476  35.5465028  41.2267127  37.4604745
  34.7798185  41.7979316  38.9614893  35.9576633  43.6645742  36.2442694
  36.5469716  44.5794543  36.1825266  36.5380474  42.8316758  35.8473638
  35.0444667  43.7811520  35.6606749  33.4156633  44.6935742  37.6252694
  32.4816633  43.9125742  37.8272694  33.2346633  45.7585742  36.8232694
  34.0088717  46.3716363  36.6114785  31.9326633  46.0865742  36.2842694
  31.1686536  45.9229663  37.0442832  31.8806633  47.5745742  35.8402694
  32.7224951  47.7549919  35.1717877  30.9476118  47.7061424  35.2923598
  31.9296633  48.6005742  36.9772694  31.8886633  49.8145742  36.7102694
  32.0006633  48.1815742  38.2542694  32.0329439  48.8581447  39.0034757
  32.0213409  47.1924667  38.4575907  31.5296633  45.2115742  35.0992694
  32.1656633  45.2135742  34.0472694  30.4186633  44.4565742  35.2532694
  30.0826902  44.3296604  36.1972579  29.7166633  43.7835742  34.1772694
  30.4116709  43.1701711  33.6038584  28.6096633  42.8665742  34.7582694
  29.1734569  42.2102899  35.4212377  27.8932288  43.4439698  35.3425947
  27.8556633  42.0175742  33.7142694  27.4851080  42.6904106  32.9409126
  28.7456633  40.9375742  33.0712694  29.1162439  40.2640371  33.8440026
  28.1629573  40.3709092  32.3450151  29.5885746  41.4123301  32.5690665
  26.5886633  41.4105742  34.3342694  25.9343594  42.2102933  34.6813072
  26.0670882  40.8141706  33.5856951  26.8639341  40.7757920  35.1765143
  29.1116633  44.7775742  33.1952694  28.4106633  45.7125742  33.6012694
  29.3556633  44.6065742  31.8842694  29.9313886  43.8277951  31.5976639
  28.8456633  45.4955742  30.8622694  28.3308179  46.3396500  31.3211479
  30.0156633  46.0355742  30.0082694  30.4847672  45.1337445  29.6148944
  29.6291751  46.6331727  29.1826769  31.0596633  46.8575742  30.7932694
  31.4697033  46.2495066  31.5996327  32.1926633  47.2845742  29.8472694
  31.7834363  47.8931062  29.0408447  32.9301000  47.8651430  30.4015506
  32.6693346  46.3988126  29.4273751  30.4366633  48.0755742  31.5002694
  29.6760460  47.7379336  32.2042294  31.2126063  48.6202820  32.0381421
  29.9797460  48.7318417  30.7595680  27.8606633  44.7855742  29.9572694
  26.9356633  45.3985742  29.4342694  27.9816633  43.4605742  29.7682694
  28.7138733  42.9147909  30.1996491  27.0296633  42.7795742  28.9142694
  26.0417499  42.8273559  29.3723561  27.0037393  43.2744639  27.9434391
  27.4056633  41.3505742  28.7202694  28.3836633  40.8615742  29.2882694
  26.6396633  40.6305742  27.8992694  25.8115011  41.0364140  27.4875161
  26.9396633  39.2545742  27.6112694  28.0205059  39.1157368  27.6358168
  26.2996633  38.3175742  28.6512694  25.2165623  38.4385267  28.6322222
  26.5535485  37.2842216  28.4149965  26.6750139  38.5654892  29.6441185
  26.4596633  38.8835742  26.2342694  25.5946633  39.5365742  25.6602694
  27.0486633  37.8205742  25.6672694  27.8496054  37.3981014  26.1146034
  26.5736633  37.2465742  24.4262694  25.7343260  37.8381892  24.0607509
  27.6826633  37.2205742  23.3262694  28.4589772  36.5073846  23.6033911
  27.2463796  36.9289589  22.3709071  28.5376633  38.8115742  23.0292694
  29.3479704  38.3582958  22.0769882  26.1456633  35.8275742  24.7652694
  27.0066633  34.9585742  24.9792694  24.8296633  35.5445742  24.8502694
  24.1810050  36.2901458  24.6417872  24.2906633  34.2645742  25.3092694
  25.1504780  33.6475040  25.5701185  23.3586633  34.3495742  26.5292694
  23.2302044  33.3613454  26.9708603  23.9946633  35.2895742  27.5582694
  24.1230183  36.2781931  27.1175231  23.3477861  35.3632714  28.4324649
  24.9663459  34.8970213  27.8579953  22.0536633  34.8715742  26.3082694
  21.5666183  34.8763665  27.1355327  23.5706633  33.5285742  24.2192694
  23.3096633  32.3245742  24.3512694  23.2756633  34.1915742  23.0822694
  23.5830107  35.1473516  22.9721492  22.4906633  33.5915742  22.0132694
  21.4912520  33.3782136  22.3924179  22.3636633  34.5115742  20.7722694
  23.3688723  34.8179779  20.4828374  21.9178726  33.9247509  19.9691448
  21.5076633  35.7525742  21.0322694  20.5253304  35.4123235  21.3599162
  21.9820881  36.3177077  21.8345457  21.3516633  36.6525742  19.7942694
  21.2011239  37.6727102  20.1474823  22.2824666  36.5977337  19.2297368
  20.1826633  36.2475742  18.8912694  20.4169394  35.2984035  18.4093043
  19.2853380  36.1338817  19.4995297  19.9496633  37.2825742  17.8562694
  20.7808817  37.3877734  17.2922581  19.1771991  37.0031308  17.2686381
  19.7321416  38.1620764  18.3026541  23.0336633  32.2485742  21.5042694
  24.2506633  32.1625742  21.2902694  22.2136633  31.2065742  21.2732694
  20.7696633  31.2135742  21.5382694  20.2990762  31.9122663  20.8465488
  20.6119364  31.5543846  22.5615335  20.3036633  29.7725742  21.3252694
  19.2852300  29.7488027  20.9375483  20.3501890  29.2097382  22.2575528
  21.3036633  29.2225742  20.3042694  20.9823556  29.3524677  19.2708343
  21.4590746  28.1626243  20.5053993  22.6116633  30.0015742  20.5482694
  23.2327594  29.4225988  21.2317351  23.3706633  30.2365742  19.2492694
  23.2066633  31.2845742  18.6222694  24.2196633  29.2745742  18.8332694
  24.3133184  28.4415779  19.3966922  25.0116633  29.3755742  17.6082694
  25.2089330  28.3604293  17.2637921  24.4033082  29.8975583  16.8696652
  26.3176633  30.1005742  17.7662694  27.0796633  30.2385742  16.8122694
  26.6536633  30.5555742  18.9812694  25.9777483  30.5569305  19.7317602
  27.9846633  31.0555742  19.2552694  28.7140435  30.5498490  18.6225407
  28.0281564  32.1292237  19.0722818  28.3196633  30.7915742  20.6932694
  27.4336633  30.4155742  21.4622694  29.5566633  30.9905742  21.1182694
  30.6656633  31.4165742  20.2702694  30.3445760  32.2555630  19.6529356
  30.9665450  30.5883189  19.6287381  31.7546633  31.8055742  21.2682694
  31.6405987  32.8393918  21.5943207  32.7481718  31.6671634  20.8417902
  31.5136633  30.8285742  22.4172694  31.8968139  31.2618108  23.3411745
  31.9451955  29.8378185  22.2748518  29.9816633  30.7285742  22.4832694
  29.6428354  29.7320498  22.7665238  29.4106633  31.7455742  23.4432694
  29.1326633  32.8865742  23.0492694  29.2026633  31.3435742  24.7052694
  29.2179156  30.3494734  24.8831183  28.9146633  32.2305742  25.8052694
  28.0634090  32.8692928  25.5696769  28.5696633  31.3895742  27.0472694
  27.6973510  30.8192308  26.7280845  29.3896560  30.7058730  27.2669616
  28.2216633  32.1935742  28.3092694  29.1035514  32.7732476  28.5819468
  27.0256633  33.1395742  28.1202694  26.1432284  32.5605381  27.8480109
  26.8352324  33.6755790  29.0500736  27.2489139  33.8546255  27.3284606
  27.9766633  31.2135742  29.4612694  28.8763930  30.6230871  29.6342165
  27.7282185  31.7695353  30.3653069  27.1508349  30.5499247  29.2049965
  30.0886633  33.1555742  26.0922694  31.2376633  32.7215742  26.1812694
  29.8146633  34.4625742  26.2252694  28.8497565  34.7581816  26.1843980
  30.8246633  35.4595742  26.4762694  31.7491145  34.9714954  26.7849248
  31.1076633  36.2965742  25.2072694  30.1434089  36.6554284  24.8473576
  31.7163750  37.1446603  25.5208295  31.8276633  35.5385742  24.0762694
  32.8439927  35.3196233  24.4037383  31.2951192  34.6045829  23.8969398
  31.8906633  36.4985742  22.5292694  33.1616633  35.5165742  21.6902694
  32.8147721  34.4889706  21.5816585  33.3568507  35.9396805  20.7048844
  34.0789809  35.5295449  22.2788791  30.3116633  36.4105742  27.5272694
  29.1846633  36.9055742  27.4282694  31.1246633  36.7025742  28.5502694
  32.0266443  36.2486938  28.5731186  30.7816633  37.6055742  29.6322694
  29.7519619  37.9565184  29.5640611  30.9776633  36.9265742  30.9882694
  32.0026557  36.5586409  31.0342570  30.7206633  37.8845742  32.1742694
  29.6956559  38.2525839  32.1292168  30.8737938  37.3513260  33.1125113
  31.4110970  38.7261689  32.1184019  30.0486633  35.6945742  31.0732694
  30.2962647  34.9963146  30.2737514  30.1820295  35.2041436  32.0375261
  29.0114962  36.0130436  30.9685669  31.6766633  38.8165742  29.4962694
  32.9106633  38.7065742  29.5282694  31.1026633  40.0115742  29.2952694
  30.1000928  40.0887522  29.3901132  31.8526633  41.1995742  28.9382694
  32.8764514  40.9338271  28.6749529  31.2096633  41.9555742  27.7792694
  30.2266286  42.3204498  28.0769422  32.1086633  43.1505742  27.4022694
  33.0917956  42.7864333  27.1040200  31.6580161  43.6979834  26.5744040
  32.2124849  43.8131173  28.2615464  30.9746633  41.0445742  26.5482694
  31.9287259  40.9225283  26.0354633  30.6306463  40.0756142  26.9100266
  29.9406633  41.6225742  25.5732694  30.2842294  42.5913922  25.2107039
  29.8159555  40.9430786  24.7301603  28.9861498  41.7444803  26.0852683
  31.9216633  42.1155742  30.1402694  30.8996633  42.5435742  30.6922694
  33.1386633  42.4615742  30.5802694  33.9468361  42.0791392  30.1104828
  33.3516633  43.2945742  31.7402694  32.4299862  43.7866923  32.0508017
  33.9406633  42.5505742  32.9462694  34.0269004  43.2421062  33.7843899
  33.0276633  41.3695742  33.3452694  32.9413118  40.6773294  32.5077483
  33.4575305  40.8506680  34.2020372  32.0391733  41.7464306  33.6078877
  35.3856633  42.0745742  32.6832694  36.0197167  42.9357325  32.4723554
  35.7627875  41.5531452  33.5630357  35.3960837  41.3983199  31.8284756
  34.2436633  44.4455742  31.3362694  34.8136633  44.4745742  30.2382694
  34.3676633  45.4695742  32.1972694  33.7291832  45.5218728  32.9781070
  35.2876633  46.5675742  31.9882694  35.0859659  47.0222596  31.0183836
  35.1476633  47.6575742  33.0862694  35.7406422  48.5101089  32.7551202
  34.0944709  47.9370582  33.1141019  35.6066633  47.2285742  34.5062694
  34.9412195  46.3989322  34.7449732  36.6354026  46.8700163  34.4711880
  35.4806633  48.3035742  35.5762694  35.8846633  49.4725742  35.3672694
  35.0316633  47.9355742  36.6952694  36.7436633  46.1495742  31.8492694
  37.2286633  45.2275742  32.5052694  37.4906633  46.8225742  30.9562694
  37.0492175  47.4647278  30.3137246  38.9146633  46.6305742  30.8592694
  39.1730183  45.5874661  31.0416904  39.3786633  47.0125742  29.4352694
  38.9072111  46.3780381  28.6848056  39.1298507  48.0551186  29.2370437
  40.8566633  46.8805742  29.2402694  41.4346633  45.6345742  28.9752694
  40.8054958  44.7457412  28.9281098  42.8136633  45.5265742  28.7712694
  43.2549190  44.5513482  28.5655311  43.6256633  46.6625742  28.8302694
  44.7009487  46.5772681  28.6734765  43.0546633  47.9105742  29.0912694
  43.6821531  48.8009823  29.1303856  41.6776633  48.0165742  29.3022694
  41.2324293  48.9879891  29.5172571  39.5846633  47.4915742  31.9172694
  39.2336633  48.6645742  32.0882694  40.5596633  46.9355742  32.6492694
  40.8087682  45.9733160  32.4700903  41.2676633  47.6435742  33.6892694
  40.8611585  48.6515623  33.7718110  41.1376633  46.9425742  35.0662694
  41.4566569  45.9023889  35.0002626  41.7347014  47.4581233  35.8185025
  39.4356633  46.9085742  35.7092694  39.7255728  46.2641484  36.8360196
  42.7196633  47.6975742  33.2822694  43.3796633  46.6635742  33.1332694
  43.2426633  48.9175742  33.0792694  42.7123290  49.6944168  33.4471831
  44.4696633  49.2025742  32.3552694  44.3750510  48.8993518  31.3125787
  44.7486633  50.7185742  32.4042694  43.8190259  51.2346723  32.1644437
  45.0497619  50.9675302  33.4218452  45.8476633  51.1595742  31.4222694
  46.7273066  50.5329005  31.5692680  45.4820588  51.0382604  30.4026036
  46.2186633  52.6185742  31.6582694  45.3597687  53.2071006  31.3357237
  46.3504849  52.7288985  32.7346295  47.4666633  53.1095742  30.9422694
  48.3559269  52.6077679  31.3237156  47.3888031  52.9430009  29.8678904
  47.5666633  54.5575742  31.2092694  47.6392528  54.7121169  32.2047326
  48.3862269  54.9287190  30.7502847  46.7429433  55.0228032  30.8555090
  45.7456633  48.5125742  32.8162694  46.5636633  48.0845742  32.0012694
  45.9696633  48.4075742  34.1322694  45.2414276  48.6780329  34.7777338
  47.2326633  47.9505742  34.6742694  48.0387456  48.1018032  33.9563138
  47.5446633  48.7665742  35.9442694  46.6826048  48.8103164  36.6098827
  48.4043538  48.3765602  36.4891743  47.8756633  50.1825742  35.5772694
  49.1386633  50.4665742  35.0412694  49.8398462  49.6504219  34.8670923
  49.5036633  51.7805742  34.7302694  50.4938759  51.9901578  34.3257272
  48.5986633  52.8245742  34.9382694  48.8847540  53.8512105  34.7096434
  47.3226633  52.5495742  35.4412694  46.6060538  53.3590462  35.5802880
  46.9656633  51.2345742  35.7662694  45.9752651  51.0224187  36.1690118
  47.2106633  46.4725742  35.0042694  48.2016633  45.9135742  35.4852694
  46.1046633  45.7665742  34.7022694  45.3236281  46.2261304  34.2562968
  45.9916633  44.3445742  34.9992694  45.0887688  43.9884642  34.5032185
  46.8628261  43.8591978  34.5592872  45.9196633  43.9905742  36.4612694
  45.3896633  44.7395742  37.2832694  46.3896633  42.7775742  36.8162694
  46.5543845  42.0996324  36.0859536  46.3726633  42.3165742  38.1912694
  45.4651689  42.6976036  38.6596386  46.4026633  40.7675742  38.3512694
  45.9593587  40.5308823  39.3185115  45.8157822  40.3019901  37.5594979
  47.8136633  40.1975742  38.3102694  48.4176633  40.0115742  39.3562694
  48.3696633  39.9425742  37.1012694  49.3046320  39.5642221  37.0485164
  47.8466420  40.1319922  36.2582567  47.3346633  43.0625742  39.1212694
  48.4456633  43.4555742  38.7392694  46.9256633  43.2625742  40.3782694
  45.9833994  42.9755948  40.6016100  47.6736633  43.9925742  41.3752694
  48.0026812  44.9549113  40.9831551  46.7586633  44.2425742  42.5902694
  45.8168831  44.5548999  42.1390466  46.6098129  43.3073985  43.1300749
  47.2436633  45.3285742  43.5692694  48.2284408  45.0351716  43.9329024
  47.3316633  46.7215742  42.9162694  46.3471027  47.0158783  42.5527803
  47.6785547  47.4470844  43.6520696  48.0316672  46.6884923  42.0814039
  46.3316633  45.3705742  44.8052694  46.3527602  44.4026638  45.3060726
  46.6832909  46.1415544  45.4908704  45.3110924  45.5973388  44.4968672
  49.0256633  43.3955742  41.7792694  49.9946633  44.1295742  41.9342694
  49.1416633  42.0485742  41.9192694  48.3129167  41.4950138  41.7554117
  50.3786633  41.3535742  42.3162694  50.6874910  41.7045468  43.3009231
  50.1746633  39.8035742  42.3792694  49.3454308  39.6045264  43.0581308
  49.9138161  39.4614208  41.3777756  51.3386633  39.1075742  42.8322694
  51.1601032  38.1645368  42.8521819  51.5156633  41.6455742  41.3522694
  52.5736633  42.1515742  41.7402694  51.2616633  41.4445742  40.0402694
  50.3570327  41.0608607  39.8068025  52.1986633  41.7225742  38.9522694
  53.0896775  41.1269449  39.1508103  51.6426633  41.3285742  37.5842694
  50.7647344  41.9439413  37.3876364  52.6666633  41.5235742  36.4572694
  53.5447393  40.9081241  36.6529817  52.2219185  41.2293158  35.5066311
  52.9614301  42.5719347  36.4108642  51.3026633  39.9525742  37.5052694
  50.9598908  39.7574022  36.6300464  52.5846633  43.1885742  38.8572694
  53.7506633  43.5325742  38.6662694  51.5936633  44.0955742  38.9962694
  50.6446769  43.7510562  39.0251068  51.8056633  45.5285742  39.0322694
  52.3780094  45.8501542  38.1621514  50.4266633  46.2525742  39.0162694
  50.0076707  45.9579449  38.0541166  49.7531418  45.9429673  39.8154017
  50.5946633  47.7485742  39.0532694  51.0626633  48.4465742  37.9342694
  51.2073691  47.9177904  36.9921721  51.3446633  49.8155742  38.0192694
  51.7095811  50.3450179  37.1391409  51.1556633  50.5035742  39.2192694
  51.4336633  51.8855742  39.2822694  51.7441942  52.2441535  38.4476491
  50.6986633  49.8115742  40.3452694  50.5586718  50.3385597  41.2890857
  50.4206633  48.4405742  40.2602694  50.0651982  47.9011053  41.1381749
  52.6326633  45.9925742  40.2282694  53.5876633  46.7445742  40.0642694
  52.3536633  45.5655742  41.4682694  51.5600450  44.9610907  41.6259692
  53.1376633  45.9885742  42.6182694  53.2231170  47.0752164  42.6206228
  52.4776633  45.5465742  43.9282694  52.3349694  44.4731543  43.8037403
  53.1628698  45.7278373  44.7563610  51.1246633  46.2115742  44.2282694
  50.4313090  46.0441447  43.4040558  50.5616633  45.5825742  45.5032694
  51.2542983  45.7500060  46.3280858  49.5996681  46.0375047  45.7392872
  50.4291331  44.5112066  45.3525791  51.1946633  47.7405742  44.3642694
  51.5649653  48.1720056  43.4343002  50.1999284  48.1329942  44.5754810
  51.8688212  48.0028520  45.1796346  54.5556633  45.4585742  42.5862694
  55.5106633  46.1215742  43.0002694  54.7206633  44.2435742  42.0412694
  53.8858070  43.7083564  41.8498110  55.9986633  43.6115742  41.8372694
  56.5796822  43.6330820  42.7592529  55.7916633  42.1305742  41.4152694
  55.0249392  41.7220697  42.0735684  55.4195096  42.1463865  40.3908907
  57.0546633  41.2495742  41.4892694  56.7966839  40.2616952  41.1076380
  57.8142146  41.6987331  40.8493943  57.5996633  41.1195742  42.9132694
  57.6359149  42.0999812  43.3882294  56.9603229  40.4571429  43.4968173
  58.9836633  40.5485742  42.8852694  59.0913196  39.5765678  43.1376839
  60.0846633  41.2615742  42.5972694  60.0416633  42.4945742  42.1142694
  59.1494141  42.9375081  41.9475329  60.9013309  42.9858765  41.9150378
  61.2816633  40.6935742  42.7512694  61.3465872  39.7408582  43.0802332
  62.1176328  41.2187981  42.5382121  56.9186633  44.3605742  40.8612694
  58.1446633  44.2515742  40.9772694  56.3526633  45.1545742  39.9162694
  55.3491486  45.0827970  39.8273549  57.0796633  45.9775742  38.9442694
  58.0418763  45.5054395  38.7459412  56.3166633  46.1525742  37.5832694
  57.0413044  46.5205881  36.8569360  55.9714689  45.1634833  37.2822045
  55.2056633  47.0465742  37.6412694  54.7930451  47.1007541  36.7761621
  57.4956633  47.3345742  39.5192694  58.3766633  48.0045742  38.9692694
  56.9426633  47.7515742  40.6812694  56.3925190  47.0808636  41.1985584
  57.0716633  49.1005742  41.2182694  57.4737459  49.7592964  40.4485202
  55.7006633  49.6575742  41.6802694  55.3193895  48.9926530  42.4552594
  55.8730675  50.6470438  42.1037392  54.6746633  49.7595742  40.5442694
  54.6294269  48.7783932  40.0716825  53.7136433  49.9840378  41.0070423
  54.9936633  50.8265742  39.4812694  56.0427255  50.7044623  39.2117215
  54.3688519  50.6101557  38.6147400  54.7486633  52.2695742  39.9402694
  53.7162723  52.3639994  40.2769494  55.4220321  52.4979159  40.7664253
  54.9916633  53.2095742  38.8362694  54.3675074  52.9984309  38.0707972
  54.8260437  54.1534804  39.1551914  55.9483663  53.1225401  38.5244305
  58.0126633  49.1995742  42.4032694  58.0536633  50.2015742  43.1042694
  58.8386633  48.1685742  42.6542694  58.7486436  47.3303346  42.0980769
  59.8016633  48.1715742  43.7492694  59.2910115  48.3688922  44.6918189
  60.5066633  46.7995742  43.8472694  61.0274793  46.6406671  42.9030245
  61.2345603  46.8722405  44.6553446  59.5566633  45.6135742  44.1162694
  58.5691517  45.8960649  43.7514122  59.9253172  44.7626056  43.5435140
  59.4636633  45.2315742  45.5922694  60.4520766  45.0748758  46.0242227
  58.9334217  45.9918078  46.1658444  58.6946633  43.9455742  45.6722694
  57.6990829  44.0177715  45.5182998  59.2216633  42.7315742  45.8972694
  60.5356633  42.5405742  45.9402694  61.1611774  43.3213305  45.8015189
  60.9030765  41.6154885  46.1115109  58.3996633  41.7105742  46.1122694
  57.4008025  41.8599143  46.1036160  58.7772751  40.7895874  46.2834164
  60.8496633  49.2845742  43.6612694  61.2876633  49.8255742  44.6662694
  61.2296633  49.6635742  42.4212694  60.8053199  49.1707406  41.6485165
  62.1816633  50.7115742  42.1262694  62.9331484  50.8135675  42.9091912
  62.8896633  50.2855742  40.8112694  63.1084791  49.2177693  40.8146573
  62.2058115  50.5131999  39.9935693  64.1916633  51.0495742  40.5852694
  64.9736633  51.2485742  41.5082694  64.4676633  51.4495742  39.3192694
  65.3192333  51.9577885  39.1278367  63.8204139  51.2374752  38.5734926
  61.4606633  52.0485742  41.9412694  62.0686633  53.0645742  41.6252694
  60.1286633  52.0765742  42.1512694  59.6863392  51.2230326  42.4609718
  59.2946633  53.2355742  41.9172694  59.9213456  54.1259709  41.8666516
  58.5086633  53.1095742  40.5942694  57.9557754  52.1710658  40.6344709
  57.8069003  53.9426545  40.5541950  59.4076633  53.1275742  39.3242694
  59.9235149  54.0877333  39.3146573  60.1387199  52.3238055  39.4115118
  58.6216633  52.9605742  38.0292694  57.3806633  52.8125742  38.1402694
  59.2206633  52.9595742  36.9352694  58.3496633  53.3845742  43.0972694
  57.1276633  53.4975742  42.9582694  58.9326633  53.3845742  44.3102694
  59.9358449  53.2706917  44.3377792  58.2216633  53.4955742  45.5622694
  57.2472650  53.9558612  45.3986141  58.0066633  52.0805742  46.1822694
  57.3568285  51.4679605  45.5573546  58.9765393  51.5936344  46.2839065
  57.3846633  52.1015742  47.5652694  58.1976633  52.1395742  48.7112694
  59.2806690  52.1058241  48.5926969  57.6356633  52.2195742  49.9912694
  58.2829197  52.2733101  50.8666392  56.2476633  52.2305742  50.1472694
  55.8031461  52.2770058  51.1414266  55.4286633  52.1815742  49.0182694
  54.3449967  52.1917657  49.1351583  55.9936633  52.1195742  47.7402694
  55.3503171  52.0843927  46.8610835  59.0126633  54.3905742  46.5112694
  60.2336633  54.2755742  46.6222694  58.3236633  55.2945742  47.2372694
  57.3580635  55.4535384  46.9873759  58.8866633  56.0625742  48.3352694
  59.7730581  55.5766057  48.7429925  59.2366633  57.5285742  48.0032694
  59.4097197  58.0826099  48.9258718  60.5146633  57.5595742  47.1372694
  60.3422165  57.0060934  46.2142190  60.7677328  58.5926612  46.8989680
  61.3374911  57.1018803  47.6864253  58.0566633  58.2755742  47.3342694
  57.1988065  58.2769551  48.0067141  58.3511439  59.3028778  47.1197278
  57.7882646  57.7734409  46.4047937  57.8336633  56.0225742  49.4302694
  56.6606633  56.0825742  49.0732694  58.0686633  55.9065742  50.7442694
  59.3666633  55.6165742  51.3392694  59.9236487  56.5494152  51.4268774
  59.9042747  54.9333867  50.6817530  59.0506633  54.9885742  52.7032694
  59.8090699  55.2699332  53.4338552  59.0128472  53.9024554  52.6195002
  57.6746633  55.5575742  53.0762694  57.7831412  56.4881572  53.6333572
  57.0801735  54.8534251  53.6583825  56.9876633  55.8335742  51.7232694
  56.3497720  54.9882825  51.4650546  56.1576633  57.1035742  51.7482694
  54.9336633  57.0275742  51.6872694  56.8166633  58.2755742  51.7822694
  57.8256341  58.2443590  51.8154791  56.1706633  59.5675742  51.7952694
  55.1153337  59.4183492  51.5669919  56.2836633  60.3175742  53.1452694
  57.3335635  60.4635129  53.3992587  55.7948229  61.2873097  53.0517378
  55.6146633  59.5235742  54.2252694  54.2336633  59.6255742  54.4482694
  53.6343754  60.2820736  53.8174271  53.6226633  58.8895742  55.4752694
  52.5471946  58.9690658  55.6338574  54.3866633  58.0445742  56.2822694
  53.7696633  57.3565742  57.3442694  52.8308829  57.5435688  57.4172359
  55.7566633  57.9025742  56.0392694  56.3486311  57.2098205  56.6374056
  56.3676633  58.6515742  55.0262694  57.4399306  58.5609366  54.8526963
  56.8266633  60.3695742  50.7112694  58.0486633  60.3595742  50.5502694
  56.0136633  61.0505742  49.8972694  55.0249282  61.0396742  50.1031421
  56.4536633  61.7175742  48.7022694  57.2809566  61.1944056  48.2227077
  55.2446633  61.7095742  47.7452694  54.6795169  60.8008874  47.9526270
  54.6362647  62.5795617  47.9923990  55.6136633  61.7515742  46.2682694
  56.1918445  62.6573763  46.0857048  56.2264895  60.8785626  46.0437772
  54.3716633  61.7485742  45.3692694  53.8867057  60.7729588  45.4022812
  53.6688534  62.5143821  45.6974400  54.8176633  62.0465742  43.9402694
  55.4284734  62.9486730  43.9753296  55.4298443  61.2064214  43.6124329
  53.7026633  62.2435742  42.9902694  53.1355259  63.0223066  43.2936352
  54.0737787  62.4354002  42.0707173  53.1367948  61.4076282  42.9573125
  56.9996633  63.1215742  48.9822694  56.3676633  64.1195742  48.6672694
  58.1756633  63.2405742  49.6402694  58.5804864  62.4029825  50.0335347
  58.8146633  64.5265742  49.9362694  58.0982495  65.2197993  50.3770523
  60.0026633  64.3695742  50.8992694  60.7113906  63.6804506  50.4400162
  60.7146633  65.7105742  51.2112694  60.0066364  66.4001017  51.6709984
  61.5436284  65.5316816  51.8960429  61.0951268  66.1442957  50.2864804
  59.4856633  63.7335742  52.2092694  59.0492703  62.7584743  51.9928360
  60.3142905  63.6134015  52.9071483  58.7282274  64.3795897  52.6531790
  59.2156633  65.3085742  48.6832694  59.7676633  64.7375742  47.7292694
  58.9496633  66.6295742  48.6512694  58.3661264  66.9564409  49.4080668
  59.3246633  67.5735742  47.6142694  58.7911817  67.2227207  46.7308678
  58.8006633  68.9815742  47.9812694  59.3318751  69.3501886  48.8587872
  58.9662640  69.6608193  47.1450262  57.7340068  68.9274954  48.1990280
  60.8156633  67.6625742  47.2612694  61.6726633  67.6145742  48.1462694
  61.2066633  67.8365742  46.0002694  62.6146633  67.6995742  45.6702694
  62.9343952  66.6929544  45.9396915  63.1771613  68.4275668  46.2548391
  62.7076633  67.9635742  44.1602694  62.9345496  67.0383126  43.6306350
  63.4854697  68.6991311  43.9551486  61.3236633  68.5065742  43.7732694
  61.0674246  68.1592462  42.7723678  61.2358890  69.5922666  43.8141025
  60.3876633  67.8685742  44.8002694  59.4915324  68.4463435  45.0266108
  59.9926633  66.5005742  44.3192694  60.6116633  65.4915742  44.6562694
  58.9206633  66.4685742  43.5252694  58.5915276  67.3293467  43.1119418
  58.2296633  65.2525742  43.2052694  58.6401342  64.3851440  43.7221617
  56.8136633  65.4855742  43.6982694  56.4673898  66.4361111  43.2924694
  56.1870782  64.6788646  43.3178607  56.7266633  65.5215742  45.2292694
  57.1754310  64.6321679  45.6716096  57.2374446  66.4093736  45.6021150
  55.2576633  65.5875742  45.6062694  54.9486633  66.3095742  46.5782694
  54.4376633  64.9255742  44.9022694  58.1616633  64.9035742  41.7302694
  57.6156633  63.8545742  41.3842694  58.7436633  65.7075742  40.8172694
  59.2053678  66.5381611  41.1594004  58.7126633  65.4775742  39.3802694
  57.6876132  65.4530955  39.0104419  59.4596633  66.6465742  38.6912694
  60.4650038  66.7626455  39.0961362  59.5215641  66.4024589  37.6307620
  58.6876633  67.9485742  38.8682694  57.4936633  67.8895742  39.2472694
  59.3186633  69.0135742  38.6682694  59.3346633  64.1515742  38.9662694
  58.7706633  63.3665742  38.2022694  60.5006633  63.8365742  39.5562694
  60.9388238  64.5596169  40.1088307  61.1906633  62.5715742  39.4092694
  61.3133006  62.3370859  38.3518790  62.5916633  62.6425742  40.0662694
  62.3988008  62.9656959  41.0892531  63.0164400  61.6388046  40.0768224
  63.5896633  63.6175742  39.3972694  63.1375350  64.6074176  39.3348923
  64.8846633  63.6965742  40.2262694  65.3376415  62.7071241  40.2887047
  65.5813814  64.3850487  39.7480566  64.6530730  64.0535573  41.2297780
  63.9186633  63.2025742  37.9522694  63.0039641  63.1919121  37.3595543
  64.6224350  63.9142400  37.5206001  64.3629379  62.2072256  37.9517673
  60.4146633  61.3985742  39.9962694  60.5076633  60.2695742  39.5262694
  59.5886633  61.6645742  41.0262694  59.5161444  62.6272325  41.3231354
  58.8156633  60.6705742  41.7322694  59.2709029  59.6914116  41.5836203
  58.7546633  60.9645742  43.2622694  58.1687315  61.8769006  43.3738216
  58.2426017  60.1413263  43.7604218  60.1096633  61.1605742  43.8832694
  61.1766633  60.2835742  43.6252694  61.0199483  59.4327983  42.9621553
  62.4316633  60.4935742  44.2102694  63.2534916  59.8109808  43.9940144
  62.6366633  61.5885742  45.0522694  63.8986633  61.8085742  45.6292694
  64.5466294  61.1463335  45.3779196  61.5776633  62.4525742  45.3372694
  61.7332270  63.3049892  45.9985477  60.3166633  62.2245742  44.7742694
  59.4810477  62.8774086  45.0265668  57.3856633  60.6305742  41.1962694
  56.4996633  60.0815742  41.8532694  57.0716633  61.2165742  40.0122694
  57.8144716  61.6153520  39.4561117  55.6916633  61.4545742  39.5972694
  55.1933033  62.0506093  40.3617815  55.5986633  62.2085742  38.2402694
  54.5410114  62.4062598  38.0659361  56.1273276  63.1526487  38.3719412
  56.1846633  61.4575742  37.0342694  57.2517579  61.3332706  37.2185478
  55.7060563  60.4788861  36.9995268  55.9776633  62.1755742  35.6942694
  54.9263462  62.4486670  35.6034302  56.5891189  63.0778545  35.6837005
  56.3736633  61.2785742  34.5222694  57.4550183  61.1415736  34.5239047
  55.8850924  60.3101539  34.6297861  55.9596633  61.8985742  33.2522694
  56.4126084  62.7957563  33.1522455  56.2248236  61.2999453  32.4832223
  54.9576369  62.0252177  33.2503748  54.7616633  60.2315742  39.5892694
  53.6856633  60.2995742  40.1882694  55.2186633  59.0875742  39.0272694
  56.1752320  59.1232354  38.7050833  54.4736633  57.8555742  38.8372694
  53.4038138  58.0614156  38.8711920  54.8146633  57.2215742  37.4572694
  55.8605577  56.9158825  37.4297622  54.1773198  56.3453234  37.3386190
  54.5436633  58.2015742  36.3272694  53.4986633  58.8965742  36.3662694
  55.4076633  58.2935742  35.4192694  54.8086633  56.8605742  39.9442694
  54.5306633  55.6625742  39.8462694  55.4526633  57.3195742  41.0382694
  55.7337407  58.2893998  41.0613606  55.8086633  56.4735742  42.1612694
  56.2054762  55.5376020  41.7680841  56.8646633  57.1005742  43.1082694
  56.6609167  58.1628629  43.2429145  56.8399651  56.6008177  44.0766358
  58.2826633  56.9935742  42.6032694  58.6676633  57.1415742  41.2582694
  57.9062398  57.3447425  40.5052377  60.0126633  57.0305742  40.8822694
  60.2988188  57.1634411  39.8389276  60.9876633  56.7495742  41.8442694
  62.0335288  56.6514956  41.5533301  60.6176633  56.5945742  43.1812694
  61.3728375  56.3699462  43.9344987  59.2786633  56.7275742  43.5532694
  58.9908758  56.6245538  44.5995319  54.6216633  56.0865742  43.0142694
  53.6946633  56.8755742  43.2492694  54.6506633  54.8555742  43.5492694
  55.3031590  54.1815010  43.1751385  53.7676633  54.4365742  44.6132694
  52.7766742  54.8444263  44.4140292  53.6506633  52.8975742  44.7542694
  54.6861309  52.5759443  44.8658949  53.0986374  52.6660811  45.6651912
  53.0106633  52.1605742  43.5662694  53.6168113  52.3035162  42.6717008
  52.9336633  50.6625742  43.8982694  52.3272493  50.5187897  44.7925216
  52.4812780  50.1276135  43.0632452  53.9377537  50.2769674  44.0749335
  51.6256633  52.7155742  43.1942694  51.7161062  53.7672901  42.9225837
  51.2242943  52.1558315  42.3494663  50.9534580  52.6175640  44.0466972
  54.2476633  55.0025742  45.9302694  55.4416633  55.2645742  46.1282694
  53.3166633  55.2135742  46.8622694  52.3487352  55.1306720  46.5859690
  53.6096633  55.6545742  48.2052694  54.6714514  55.4792620  48.3783902
  53.2986633  57.1345742  48.5082694  53.7648432  57.4153830  49.4526861
  53.8486633  58.0225742  47.3822694  53.3825704  57.7426464  46.4375485
  53.6263924  59.0669980  47.6010700  54.9279136  57.8891793  47.3079385
  51.9096633  57.4155742  48.6262694  51.7868530  58.3489889  48.8140324
  52.9056633  54.7695742  49.1812694  52.1456633  53.8615742  48.8002694
  53.1306633  54.9895742  50.4802694  53.8995190  55.6055351  50.7028729
  52.4186633  54.3645742  51.5672694  52.5011809  53.2789717  51.5147604
  53.0466633  54.8415742  52.8862694  54.1199658  54.7841354  52.7051019
  52.7601213  55.8816702  53.0418141  52.6946633  54.0225742  54.1342694
  51.6320326  54.1604986  54.3340038  52.9946633  52.5225742  53.9692694
  54.0572626  52.3838112  53.7699549  52.7251764  51.9948336  54.8841287
  52.4143870  52.1248970  53.1366634  53.4866633  54.6205742  55.3022694
  53.2051621  55.6650932  55.4358232  53.2652170  54.0657083  56.2139638
  54.5536624  54.5568092  55.0888549  50.9206633  54.6585742  51.5062694
  50.0926633  53.7755742  51.7372694  50.5526633  55.8985742  51.0982694
  51.2836822  56.5841451  50.9729568  49.1766633  56.3125742  50.8862694
  48.6206528  56.1344458  51.8067159  49.0326633  57.8005742  50.5032694
  49.6814690  58.3911693  51.1500675  49.3438207  57.9250451  49.4660674
  47.5656633  58.2815742  50.6642694  46.9118045  57.6409648  50.0725017
  47.3397335  58.1518007  51.7226709  47.3406633  59.7395742  50.2712694
  48.3076633  60.3905742  49.8002694  46.1706633  60.1835742  50.4002694
  48.4756633  55.4925742  49.8162694  47.3736633  54.9895742  50.0332694
  49.1366633  55.2525742  48.6512694  50.0384434  55.6824021  48.5024746
  48.5996633  54.3875742  47.6022694  47.6670128  54.8307374  47.2531725
  49.5406633  54.1855742  46.3822694  50.5182554  53.8842274  46.7585709
  49.1468645  53.4060187  45.7301070  49.7636633  55.3805742  45.5292694
  50.6296633  56.3535742  45.9742694  51.1581437  56.3891920  46.8342342
  50.6356633  57.2615742  45.0272694  51.2634721  58.1372321  45.1921278
  49.8306633  56.9255742  43.9862694  49.2686633  55.7085742  44.3142694
  48.5755714  55.2250769  43.6258253  48.3056633  52.9875742  48.0952694
  47.2546633  52.4275742  47.7982694  49.2186633  52.3945742  48.8882694
  50.1062743  52.8529789  49.0369677  49.0236633  51.0745742  49.4542694
  48.7312717  50.3802602  48.6665294  50.3206633  50.5555742  50.1132694
  50.4757107  51.2694613  50.9222346  50.1587443  49.5623113  50.5319710
  51.5686633  50.5325742  49.2002694  51.8728022  51.5550836  48.9764954
  52.7166633  49.8015742  49.9132694  52.4134170  48.7787847  50.1369706
  53.5949567  49.7866788  49.2679171  52.9572049  50.3199249  50.8414680
  51.3206633  49.9295742  47.8022694  50.5580070  50.5117083  47.2849932
  52.2462589  49.9517184  47.2270446  50.9822337  48.8986019  47.9055193
  47.8636633  50.9855742  50.4442694  47.0186633  50.1035742  50.3482694
  47.7496633  51.9465742  51.3942694  48.5185448  52.5825185  51.5507793
  46.6066633  52.0015742  52.3072694  46.4098347  51.0091343  52.7127578
  46.8036633  52.9905742  53.4552694  46.9018680  53.9974952  53.0496018
  45.5856633  52.9365742  54.4152694  45.4870846  51.9300064  54.8217226
  45.7336012  53.6443361  55.2309214  44.6795428  53.1973940  53.8684441
  48.1126633  52.7135742  54.2362694  47.9550778  51.8303221  54.8552470
  48.9013269  52.5125031  53.5112318  48.5246633  53.8935742  55.1252694
  47.7366392  54.0949562  55.8509162  49.4476729  53.6484077  55.6506701
  48.6828862  54.7771383  54.5069006  45.2906633  52.2595742  51.5642694
  44.2676633  51.6405742  51.8582694  45.2956633  53.1425742  50.5412694
  46.1289012  53.6999205  50.4180664  44.1576633  53.3965742  49.6642694
  43.2883537  53.6638564  50.2650691  44.4586633  54.5645742  48.6762694
  44.8384308  55.4210984  49.2332633  45.2066487  54.2422908  47.9518722
  43.0406633  55.1825742  47.7002694  43.7222168  56.1139647  47.0392891
  43.7026633  52.1705742  48.8732694  42.5046633  51.8925742  48.7902694
  44.6266633  51.3655742  48.2982694  45.5925435  51.6603958  48.2823030
  44.2786633  50.1015742  47.6582694  43.5386588  50.2971399  46.8822239
  45.5016633  49.3945742  47.0112694  46.1887392  49.2340443  47.8420859
  45.1800363  48.4313809  46.6151447  46.1966633  50.1735742  45.9302694
  45.5706633  51.1205742  45.0982694  44.5236088  51.3735391  45.2649586
  46.2846633  51.7375742  44.0602694  45.7961068  52.4742760  43.4225509
  47.6266633  51.4195742  43.8562694  48.3546633  51.9825742  42.8002694
  47.8333316  52.5847364  42.2643462  48.2696633  50.5145742  44.6962694
  49.3303044  50.3008996  44.5640427  47.5506633  49.8795742  45.7112694
  48.0410580  49.1430059  46.3477286  43.6336633  49.1115742  48.6262694
  42.6066633  48.5095742  48.3262694  44.1976633  48.9775742  49.8462694
  45.0595130  49.4730932  50.0245255  43.6426633  48.1485742  50.9122694
  43.5652507  47.1198752  50.5602967  44.5256633  48.1715742  52.1792694
  44.6219073  49.2015633  52.5227206  44.0452857  47.5741319  52.9541243
  45.8206633  47.6395742  51.9032694  46.3529412  47.6626713  52.7018598
  42.2486633  48.5475742  51.3682694  41.3806633  47.6955742  51.5802694
  41.9966633  49.8645742  51.5182694  42.7935533  50.4775976  51.4219996
  40.7066633  50.4555742  51.8392694  40.3260697  50.0718157  52.7858301
  40.8996633  51.9985742  51.9682694  41.5404971  52.1857722  52.8298889
  41.3511103  52.4369808  51.0782721  39.6126633  52.7505742  52.2152694
  38.9526633  52.6465742  53.4462694  39.3940255  52.0385446  54.2359524
  37.7406633  53.3115742  53.6692694  37.2383053  53.2119766  54.6314635
  37.1756633  54.0995742  52.6652694  36.2445670  54.6373590  52.8440069
  37.8116633  54.1965742  51.4242694  37.3670726  54.7977205  50.6311349
  39.0186633  53.5225742  51.1992694  39.5090937  53.5924069  50.2283413
  39.6446633  50.1395742  50.7862694  38.5326633  49.7215742  51.1012694
  39.9896633  50.3015742  49.4942694  40.9010744  50.6873765  49.2928104
  39.1096633  50.0025742  48.3832694  38.1651797  50.5369390  48.4857600
  39.7866633  50.4505742  47.0862694  40.7990079  50.0466282  47.0955009
  39.2271487  50.0085243  46.2618694  39.8456633  51.9765742  46.9052694
  38.8325110  52.3783114  46.8900841  40.4228578  52.4772094  47.6826450
  40.4996633  52.2545742  45.5582694  39.8906633  52.0215742  44.5162694
  41.7696633  52.7145742  45.5702694  42.2403793  52.9116910  44.6986773
  42.2427922  52.8593246  46.4507793  38.7136633  48.5395742  48.2572694
  37.5466633  48.2185742  48.0322694  39.6656633  47.5985742  48.4402694
  40.6369008  47.8756372  48.4460181  39.3526633  46.1765742  48.4942694
  38.7397601  45.9097242  47.6333165  40.5966633  45.2995742  48.4962694
  41.2287284  45.5670346  49.3430621  40.1816633  43.8165742  48.6122694
  39.5499119  43.5482307  47.7655209  41.0725127  43.1884933  48.6137064
  39.6292363  43.6647989  49.5395721  41.3916633  45.5275742  47.1902694
  41.6863805  46.5747406  47.1218131  42.2824070  44.8993452  47.1921431
  40.7675641  45.2696344  46.3346596  38.4336633  45.8385742  49.6692694
  37.4646633  45.1005742  49.5132694  38.6656633  46.4205742  50.8722694
  39.5285093  46.9250368  51.0175746  37.7706633  46.2455742  52.0042694
  37.7203630  45.1693498  52.1695269  38.3506633  46.9125742  53.2702694
  38.3987432  47.9915798  53.1235201  37.7105569  46.6907178  54.1241686
  39.3527187  46.5269595  53.4581135  36.3356633  46.7325742  51.7372694
  35.3786633  46.0255742  52.0392694  36.1626633  47.9145742  51.0932694
  36.9886800  48.4773292  50.9480027  34.8786633  48.4355742  50.6282694
  34.1896542  48.5258695  51.4680387  35.0646633  49.8385742  49.9852694
  35.8977529  49.7665486  49.2860747  34.1503694  50.0677794  49.4378831
  35.3456633  50.9555742  51.0032694  35.5904226  50.4967371  51.9612163
  36.1975209  51.5375907  50.6515629  34.1286633  51.8805742  51.1742694
  33.2301694  51.2647531  51.1346194  34.2011661  52.3539258  52.1534431
  34.0556633  52.9605742  50.0892694  34.8291732  53.7050303  50.2778643
  34.2264718  52.4981616  49.1171078  32.7286633  53.6155742  50.0972694
  32.5703726  54.0444882  50.9978673  32.6981994  54.3232520  49.3772944
  32.0118022  52.9259893  49.9221070  34.1816633  47.5475742  49.6082694
  32.9746633  47.3155742  49.6722694  34.9316633  47.0055742  48.6302694
  35.9095057  47.2456747  48.5510534  34.3696633  46.0675742  47.6652694
  33.5041354  46.5450269  47.2059223  35.1279836  45.8821252  46.9045735
  33.9406633  44.7425742  48.2682694  32.9286633  44.1655742  47.8792694
  34.7006633  44.2305742  49.2592694  35.6100076  44.6461195  49.4024978
  34.3516633  43.0495742  50.0352694  33.9643233  42.2830670  49.3640513
  35.5706633  42.4755742  50.7882694  36.0393823  43.3114231  51.3076521
  35.1814125  41.7666432  51.5190229  36.6166633  41.7725742  49.8962694
  37.0518242  42.5450494  49.2622207  37.3813008  41.3801408  50.5666629
  35.9846633  40.4135742  48.8422694  34.9796633  39.4565742  50.0182694
  34.1875358  40.0891377  50.4188895  34.5374962  38.6013399  49.5072280
  35.6108847  39.1049729  50.8343804  33.1816633  43.2445742  50.9962694
  32.3456633  42.3555742  51.1512694  33.0656633  44.4235742  51.6452694
  33.8513297  45.0567953  51.6021564  31.9086633  44.8115742  52.4412694
  31.7371867  44.0837099  53.2343069  32.1576633  46.1985742  53.0872694
  33.0136975  46.0741599  53.7504630  32.4257623  46.8689307  52.2706635
  30.9706633  46.8025742  53.8832694  30.0555483  46.7336379  53.2951255
  30.8694138  46.1973676  54.7841427  31.2166633  48.2615742  54.2742694
  31.6286633  49.0605742  53.3892694  30.9476633  48.5915742  55.4572694
  30.6316633  44.8395742  51.6022694  29.5906633  44.3075742  51.9952694
  30.7186633  45.3925742  50.3682694  31.5310498  45.9579522  50.1670849
  29.6746633  45.3055742  49.3632694  28.7346510  45.6760711  49.7721804
  30.0476633  46.1615742  48.1222694  30.2407803  47.1765166  48.4696842
  30.9025206  45.8062180  47.5469078  28.8856633  46.2475742  47.1612694
  27.7646633  47.0285742  47.4752694  27.7689319  47.6211036  48.3901413
  26.6486633  47.0535742  46.6302694  25.7789773  47.6565194  46.8914285
  26.6506633  46.3045742  45.4512694  25.7942387  46.3407780  44.7779744
  27.7526633  45.5085742  45.1362694  27.7499648  44.9135193  44.2230320
  28.8606633  45.4735742  45.9912694  29.7149272  44.8407566  45.7506972
  29.3436633  43.8675742  48.9512694  28.1806633  43.4915742  48.9052694
  30.3366633  42.9915742  48.6902694  31.2921626  43.3155535  48.6438178
  30.0666633  41.5865742  48.3952694  29.3997304  41.5102711  47.5365043
  31.3776633  40.8445742  48.0682694  32.1645470  41.3447679  48.6328219
  31.2815108  39.8152597  48.4137639  31.7356633  40.8515742  46.5762694
  31.6555592  41.8685251  46.1922186  33.1686633  40.3425742  46.3792694
  33.2494346  39.3254381  46.7626869  33.4149263  40.3506892  45.3174834
  33.8616965  40.9892687  46.9174065  30.7716633  39.9715742  45.7702694
  29.7545465  40.3462229  45.8852103  31.0506267  39.9965234  44.7168663
  30.8238869  38.9458171  46.1352270  29.3336633  40.8185742  49.4942694
  28.3946633  40.0665742  49.2272694  29.7256633  41.0445742  50.7612694
  30.5800216  41.5708476  50.8761930  29.0666633  40.5375742  51.9472694
  29.0324463  39.4512635  51.8644597  29.9016633  40.9115742  53.1912694
  29.9374894  41.9962451  53.2927859  29.4434311  40.4788771  54.0805932
  30.9142963  40.5239667  53.0797615  27.6206633  41.0335742  52.1062694
  26.7306633  40.2755742  52.4872694  27.3336633  42.3185742  51.7652694
  28.1202652  42.9389412  51.6368109  25.9836633  42.8995742  51.7832694
  25.5121494  42.6115727  52.7228592  25.9406633  44.4635742  51.6592694
  25.0487708  44.7945564  52.1913200  26.8276366  44.8415902  52.1676809
  25.9096633  44.9635742  50.3212694  25.8845273  45.9230859  50.3387401
  25.0346633  42.2125742  50.8042694  23.8296633  42.0785742  51.0492694
  25.5756633  41.6745742  49.6912694  26.5703965  41.7895994  49.5594578
  24.8226633  40.9765742  48.6672694  23.8090538  41.3748516  48.6217709
  25.4876633  41.1545742  47.2782694  26.4627253  40.6699048  47.3277539
  24.8597214  40.6334472  46.5556244  25.6656633  42.6255742  46.8392694
  26.3850027  43.0554959  47.5362765  26.1060601  42.5839349  45.8430672
  24.4056633  43.4965742  46.8042694  23.9122761  43.5194916  47.7759396
  24.6358986  44.5146268  46.4901675  23.4686633  42.8845742  45.8032694
  23.8334569  42.8279987  44.8631502  22.2266633  42.4375742  46.0352694
  21.6856633  42.4845742  47.2492694  22.2156561  42.8643413  48.0206218
  20.7472985  42.1402834  47.3943040  21.5286633  41.9195742  45.0322694
  21.9376437  41.8677132  44.1102361  20.5917299  41.5796324  45.1956531
  24.7006633  39.4895742  48.9612694  24.0616633  38.7505742  48.2102694
  25.2636633  39.0585742  50.1102694  25.8746489  39.7348150  50.5455788
  25.2356633  37.7105742  50.6472694  25.7555619  37.7234029  51.6052047
  23.8136633  37.1335742  50.8632694  23.4209372  36.8194383  49.8962202
  23.8914405  36.2683841  51.5216742  22.8666633  38.1685742  51.4882694
  23.4429684  38.7456200  52.2114509  22.5257401  38.8260322  50.6885054
  21.6526633  37.5405742  52.1862694  21.1383526  36.9286351  51.4452471
  22.0358412  36.9014740  52.9817724  20.6716633  38.5585742  52.7772694
  20.3321307  39.2381702  51.9956254  19.8139561  38.0378570  53.2030524
  21.3556633  39.3295742  53.8372694  22.1502149  39.8125030  53.4428493
  20.7140287  40.0028071  54.2311762  21.6699847  38.7000797  54.5618643
  26.1306633  36.7685742  49.8842694  25.8556633  35.5725742  49.7692694
  27.2566633  37.2895742  49.3782694  27.4765021  38.2498359  49.6011318
  28.1746633  36.5545742  48.5532694  27.7888437  35.5501655  48.3788971
  28.3636633  37.2555742  47.1872694  28.6023429  38.3095427  47.3296831
  29.1616735  36.7762603  46.6202263  26.8896633  37.2115742  46.1202694
  27.4323745  37.8789180  45.1058656  29.5176633  36.4835742  49.2342694
  29.8806633  37.3485742  50.0432694  30.2996633  35.4415742  48.9322694
  29.9133821  34.7403929  48.3164521  31.6226633  35.2225742  49.4772694
  32.0298582  36.1418657  49.8982142  31.7216633  34.0965742  50.5162694
  32.7429978  34.0141923  50.8880078  30.7746633  34.4455742  51.6862694
  29.7530027  34.5276728  51.3153648  30.8246087  33.6609694  52.4412539
  31.0773838  35.3946263  52.1287167  31.4636633  32.6735742  49.9592694
  30.4423816  32.6442102  49.5795033  32.1609197  32.5052310  49.1385420
  31.6466633  31.5795742  51.0172694  30.9493724  31.7469953  51.8381564
  31.4530218  30.6046781  50.5698548  32.6679105  31.6080178  51.3971969
  32.4996633  34.9545742  48.2852694  32.0316633  34.3735742  47.2942694
  33.7596633  35.4095742  48.3092694  34.0860851  35.8412468  49.1620337
  34.6536633  35.3725742  47.1742694  34.1011833  35.5807891  46.2580207
  35.7686633  36.4435742  47.3362694  35.2502319  37.3656026  47.5993128
  36.4976452  36.2037228  48.1103215  36.5446633  36.7295742  46.0922694
  37.3846633  35.7565742  45.5912694  37.8396633  36.2465742  44.4612694
  38.5244676  35.6181990  43.8918077  37.3516633  37.4885742  44.2092694
  37.5402033  38.0944256  43.4234599  36.5126633  37.7955742  45.2632694
  35.9922736  38.7530927  45.2845794  35.2666633  33.9935742  46.9932694
  35.1196633  33.3785742  45.9422694  35.9076633  33.4625742  48.0562694
  36.0263521  34.0901104  48.8387083  36.5956633  32.1775742  48.0902694
  36.8369772  31.9720318  49.1331592  35.8026633  30.9635742  47.5132694
  35.7388784  31.1280407  46.4376387  36.4135924  30.0825722  47.7099952
  34.3846633  30.7445742  48.0852694  34.4713106  30.6249366  49.1652138
  33.7912900  31.6319799  47.8649937  33.6976633  29.5085742  47.4872694
  33.4905788  29.6688941  46.4291992  34.3345251  28.6316514  47.6035142
  32.3916633  29.2565742  48.2032694  32.4182666  28.5705484  48.9440529
  31.2116633  29.8175742  47.8912694  31.1176633  30.7705742  46.9742694
  31.9472815  31.0885370  46.4939224  30.2168735  31.1741802  46.7603078
  30.1106633  29.4595742  48.5642694  30.1741304  28.7713786  49.3007875
  29.2218291  29.8793923  48.3322667  38.0306633  32.1345742  47.5272694
  38.7536633  31.1865742  47.8472694  38.5096633  33.1285742  46.7412694
  37.8743651  33.8688783  46.4796485  39.8596633  33.1485742  46.1892694
  40.5281988  32.5858443  46.8408018  39.8926633  32.5085742  44.7702694
  39.2954660  31.5991710  44.8369057  39.4166427  33.2054938  44.0804814
  41.2886633  32.1635742  44.2612694  42.3136633  32.3085742  44.9782694
  41.3776633  31.7445742  43.0772694  40.3566633  34.5975742  46.1872694
  40.8796633  35.1335742  45.2072694  40.1616633  35.3195742  47.3102694
  39.5862696  34.9279187  48.0421351  40.6506633  36.6775742  47.4712694
  40.4442132  37.2537467  46.5693255  39.9536633  37.3655742  48.6672694
  38.8928271  37.1857716  48.4929223  40.2635011  36.8535949  49.5783005
  40.1996633  38.8805742  48.8202694  41.2732022  39.0452503  48.9124473
  39.6606633  39.6735742  47.6152694  38.5870264  39.5097538  47.5227189
  39.8541631  40.7360490  47.7629376  40.1587409  39.3370209  46.7060110
  39.5446633  39.3605742  50.1222694  39.9823301  38.8289971  50.9672386
  39.7123788  40.4310507  50.2408145  38.4733475  39.1631217  50.0849315
  42.1776633  36.7385742  47.6032694  42.7646633  36.1585742  48.5142694
  42.8576633  37.4275742  46.6682694  42.3364536  37.9900581  46.0109630
  44.2966633  37.4405742  46.5882694  44.8136585  37.5813973  47.5374711
  44.7846633  36.1245742  45.9522694  44.2825689  35.9742264  44.9965514
  45.8616675  36.1752280  45.7922810  44.5554357  35.2920576  46.6174537
  44.6626633  38.5985742  45.6782694  43.8086633  39.0525742  44.9172694
  45.9196633  39.0975742  45.6722694  46.5843537  38.7321426  46.3391620
  46.3296633  40.2175742  44.8282694  45.6241678  41.0180635  45.0509628
  47.7426633  40.6835742  45.2222694  48.4616286  39.8959623  44.9967556
  47.9997016  41.5813051  44.6600322  47.7687509  40.9039385  46.2894424
  46.2506633  39.9475742  43.3292694  46.0216633  40.8445742  42.5162694
  46.3716633  38.6725742  42.9202694  46.6525683  37.9930414  43.6126760
  46.1906633  38.2255742  41.5512694  46.7496662  38.8704665  40.8732364
  46.7046633  36.7705742  41.3882694  46.6560819  36.5312687  40.3259738
  47.7443746  36.7600737  41.7153628  45.9036633  35.7225742  42.1882694
  45.9485833  36.0185616  43.2363507  44.8720936  35.7755658  41.8401919
  46.4206633  34.2825742  42.0402694  46.3115357  33.9182000  41.0187893
  47.4628506  34.1950107  42.3473161  45.5786633  33.4315742  42.9472694
  44.7704177  32.9593629  42.5679872  45.8636633  33.2675742  44.2442694
  47.0136633  33.7035742  44.7432694  47.6804660  34.1633649  44.1398901
  47.2166825  33.5735576  45.7240744  44.9896633  32.6695742  45.0532694
  44.1091710  32.3393488  44.6847798  45.2117685  32.5493267  46.0311797
  44.7416633  38.3035742  41.0502694  44.4906633  38.1995742  39.8502694
  43.7616633  38.4795742  41.9652694  44.0613398  38.4685573  42.9297236
  42.3406633  38.6145742  41.6862694  42.1636554  38.4800326  40.6191865
  41.5136633  37.5445742  42.4682694  41.9802223  37.4014619  43.4429184
  40.4898553  37.8932131  42.6037989  41.4796633  36.1975742  41.7392694
  41.6566633  36.1035742  40.5182694  41.2226633  35.1025742  42.4872694
  41.1901842  34.1925480  42.0503515  41.0641417  35.1987989  43.4801000
  41.8996633  40.0385742  42.0402694  40.7086633  40.3135742  42.2202694
  42.8396633  41.0055742  42.1102694  43.8130031  40.7376791  42.0795932
  42.5176633  42.4155742  42.2192694  41.4383757  42.5675199  42.2315156
  43.1466633  43.1265742  43.4212694  44.2314052  43.0479972  43.3487376
  42.7386633  44.6195742  43.4512694  41.6540114  44.6989620  43.5242663
  43.1967820  45.1047109  44.3131686  43.0775055  45.1077948  42.5375267
  42.8166633  42.4225742  44.7572694  43.2201304  41.4119788  44.6939287
  43.3345282  42.9713438  45.5438870  41.3226633  42.3555742  45.0812694
  40.8041640  41.8065106  44.2952748  41.1795334  41.8465439  46.0344227
  40.9185613  43.3658763  45.1452308  43.0406633  43.0495742  40.9592694
  44.1946633  42.8095742  40.5682694  42.2286633  43.8525742  40.2712694
  41.3018343  43.9907167  40.6481036  42.5926633  44.5665742  39.0722694
  43.4706830  44.0962797  38.6295465  41.4526633  44.5615742  38.0312694
  40.6054340  44.9616955  38.5882297  41.6791757  45.2200750  37.1927178
  41.1036633  43.1655742  37.5042694  41.1257136  42.4580486  38.3331374
  39.7046633  43.1645742  36.8672694  39.6819675  43.8715725  36.0379702
  39.4734911  42.1652366  36.4985086  38.9651118  43.4562045  37.6130012
  42.1806633  42.6505742  36.5352694  43.1390759  42.5969348  37.0516679
  41.9046806  41.6582492  36.1785820  42.2628177  43.3309302  35.6876460
  42.8486633  46.0085742  39.4182694  42.1776633  46.5645742  40.2912694
  43.7876633  46.6655742  38.7272694  44.3770763  46.1449392  38.0935259
  44.0436633  48.0765742  38.8972694  43.4203808  48.4765439  39.6970459
  45.5286633  48.3015742  39.2682694  45.6228893  47.7961782  40.2294122
  46.1512607  47.7961539  38.5300128  45.9886633  49.7685742  39.4112694
  45.8029924  50.2564700  38.4544074  45.2766633  50.5485742  40.5312694
  45.4622684  50.0615077  41.4885655  45.6583905  51.5690425  40.5633546
  44.2044673  50.5682513  40.3360542  47.5046633  49.8035742  39.6332694
  48.0077217  49.3446299  38.7821515  47.8337493  50.8377404  39.7347773
  47.7522688  49.2532800  40.5409955  43.6526633  48.8065742  37.6182694
  44.0756633  48.4555742  36.5112694  42.7756633  49.8235742  37.7352694
  42.3849627  49.9944813  38.6508256  42.3116633  50.6395742  36.6242694
  42.6409687  50.1877846  35.6885647  40.7556633  50.7605742  36.5992694
  40.3466642  49.7639702  36.7654001  40.4644317  51.4139982  37.4216570
  40.2456633  51.2865742  35.3682694  39.2880675  51.3367117  35.4140568
  42.9636633  52.0075742  36.7132694  43.9106633  52.2215742  37.4692694
  42.4786633  52.9765742  35.9222694  41.7959316  52.7032710  35.2299673
  42.8936633  54.3635742  35.9672694  43.9756637  54.4134327  35.8452515
  42.2316633  55.2075742  34.8542694  41.1703006  55.2676977  35.0950884
  42.6732823  56.2025430  34.9100344  42.4046633  54.6455742  33.4202694
  42.1701936  53.5813616  33.4442770  41.6668464  55.1659612  32.8095953
  43.7996633  54.8475742  32.8182694  44.8216633  54.7885742  33.5542694
  43.8786633  55.0405742  31.5782694  42.5876633  55.0305742  37.2962694
  41.6916633  54.6205742  38.0332694  43.3556633  56.0855742  37.6432694
  44.2101699  56.2278549  37.1239681  43.1046633  56.9295742  38.8072694
  43.9121773  57.6556170  38.9015151  41.7586633  57.6965742  38.6892694
  40.9633953  56.9656548  38.5429647  41.5909729  58.2331608  39.6231082
  41.7596633  58.6905742  37.5222694  42.5921206  59.3787921  37.6688019
  41.9125895  58.1269266  36.6019341  40.4486633  59.4865742  37.4232694
  39.6373546  58.7734550  37.2771932  40.3057684  60.0100628  38.3685948
  40.4506633  60.4995742  36.2742694  41.2476363  61.2243375  36.4405606
  40.6287293  59.9732779  35.3365041  39.1486633  61.2045742  36.2052694
  38.9836707  61.6926699  37.0739695  39.1650946  61.8682022  35.4440678
  38.4100813  60.5332161  36.0507573  43.1996633  56.2195742  40.1492694
  42.5816633  56.6235742  41.1282694  44.0276633  55.1565742  40.2212694
  44.3917980  54.8080505  39.3460343  44.2526633  54.3735742  41.4192694
  44.8895192  53.5230824  41.1760054  44.9416633  55.2065742  42.5312694
  44.4368356  56.1479575  42.7481698  45.0313304  54.6234005  43.4477672
  46.3296633  55.5105742  42.0142694  47.1106633  54.5745742  41.7572694
  46.7096633  56.7775742  41.7982694  47.6388304  56.9709774  41.4528082
  46.0651211  57.5331736  41.9819422  43.0276633  53.6155742  41.9092694
  42.9226633  53.2895742  43.0872694  42.1006633  53.2565742  40.9922694
  42.2206411  53.5291060  40.0271626  40.9046633  52.5165742  41.3552694
  40.6625645  52.7261498  42.3971741  39.6886633  52.8505742  40.4952694
  39.8905518  52.5708229  39.4613064  38.4546633  52.0735742  41.0072694
  38.2518604  52.3531634  42.0410981  37.5899661  52.3160671  40.3895345
  38.6506287  51.0027190  40.9527866  39.4146633  54.3675742  40.5482694
  40.2829799  54.9075568  40.1707154  38.5459103  54.6021075  39.9331580
  39.2212007  54.6665957  41.5784438  41.1676633  51.0265742  41.2532694
  41.4846633  50.5025742  40.1812694  41.0096633  50.2865742  42.3672694
  40.8759360  50.7466804  43.2563805  41.1596633  48.8455742  42.3552694
  41.5416040  48.5204112  41.3875456  42.0386633  48.2505742  43.4512694
  41.9534982  47.1639281  43.4444556  43.4996633  48.6515742  43.1872694
  43.5857112  49.7381495  43.1943930  44.1382860  48.2319440  43.9645544
  43.8119894  48.2692536  42.2154747  41.5596633  48.6885742  44.8412694
  40.5344771  48.3520091  44.9956046  42.2041044  48.2499645  45.6031203
  41.5995788  49.7754047  44.9141193  39.8146633  48.1815742  42.3542694
  38.8346633  48.6775742  42.9352694  39.7266633  47.0475742  41.6562694
  40.5727574  46.7116514  41.2187995  38.5136633  46.2935742  41.4662694
  37.7437288  46.6600187  42.1452529  38.0016633  46.4365742  40.0162694
  38.8524317  46.3254873  39.3439956  37.2848956  45.6368905  39.8295877
  37.3306633  47.7905742  39.7702694  36.2518934  47.6351263  39.7841386
  37.6120059  48.4550625  40.5872172  37.7396633  48.4245742  38.4302694
  38.8294246  48.4223145  38.4075949  37.3591447  47.7669159  37.6487384
  37.2276633  49.8475742  38.1932694  37.6721924  50.5384648  38.9096245
  37.4619131  50.1747829  37.1802735  35.7706633  49.8245742  38.3752694
  35.5533990  49.5218139  39.3140091  35.3980425  50.7513303  38.2256803
  35.3585168  49.1847599  37.7112874  38.7256633  44.8345742  41.7662694
  39.6116633  44.1805742  41.2082694  37.9156633  44.2715742  42.6672694
  37.3455965  44.8908675  43.2254800  37.8576633  42.8495742  42.9422694
  38.8470613  42.4206256  43.1009947  36.9916633  42.5935742  44.1672694
  36.0022431  43.0128337  43.9845960  36.8636633  41.0835742  44.4642694
  37.8527060  40.6636751  44.6475175  36.2386633  40.9377400  45.3452962
  36.4091450  40.5819615  43.6099293  37.5646633  43.3515742  45.3852694
  38.4802049  42.8529387  45.7034625  37.7947033  44.3724478  45.0803135
  36.5736633  43.3785742  46.5412694  36.3434805  42.3579951  46.8471027
  37.0092103  43.9195768  47.3813374  35.6579775  43.8775026  46.2239526
  37.3456633  42.0695742  41.7362694  36.3896633  42.4765742  41.0722694
  37.9646633  40.9165742  41.4242694  38.7803413  40.6365065  41.9499412
  37.5566633  40.0995742  40.3092694  36.4875401  40.2340120  40.1449482
  38.3136633  40.4715742  38.9962694  37.8233427  39.9841126  38.1536152
  38.2787842  41.5525306  38.8605611  40.0786633  40.0045742  38.8952694
  40.2826621  40.4949473  37.6759184  37.7526633  38.6575742  40.6612694
  38.2896633  38.3435742  41.7282694  37.3046633  37.7385742  39.8032694
  36.6130943  37.9802383  39.1079779  37.6966633  36.3705742  39.9212694
  38.5973443  36.2962901  40.5306582  36.5736633  35.5385742  40.5932694
  36.4687382  35.9677701  41.5897035  35.6032411  35.5322082  40.0969426
  37.0926633  34.1165742  40.7072694  38.3276633  33.9745742  40.9252694
  36.3076633  33.1765742  40.4452694  38.0866633  35.9285742  38.5122694
  37.2486633  35.8655742  37.5942694  39.3746633  35.6325742  38.2472694
  40.0981677  35.9033628  38.8978954  39.7746633  35.0515742  36.9712694
  39.2748885  35.6072075  36.1777986  41.3016633  35.0825742  36.7112694
  41.8859074  34.8187112  37.5928216  41.5431241  34.3983688  35.8978448
  41.7676633  36.4485742  36.2782694  42.0906633  37.4435742  37.2132694
  41.9427663  37.2440288  38.2745931  42.5976633  38.6815742  36.7972694
  42.8704875  39.4350062  37.5361928  42.7536633  38.9505742  35.4342694
  43.1383632  39.9164124  35.1067601  42.4146633  37.9765742  34.4902694
  42.5276064  38.1841023  33.4261848  41.9296633  36.7335742  34.9132694
  41.6717681  35.9705559  34.1788356  39.2306633  33.6365742  36.7932694
  38.8646633  33.2375742  35.6862694  39.1226633  32.8535742  37.8882694
  39.4154759  33.2567038  38.7668175  38.6176633  31.4805742  37.8892694
  38.8144396  31.0784954  38.8831058  37.5412084  31.5459600  37.7309376
  39.2156633  30.5435742  36.8482694  40.3996633  30.2355742  36.8512694
  38.3786633  30.0865742  35.8862694  37.4150469  30.3835581  35.9440921
  38.7646633  29.1975742  34.7942694  39.2772010  28.3229813  35.1948834
  37.5186633  28.7245742  34.0122694  37.0868984  29.6401754  33.6081002
  37.8469643  28.0855993  33.1924954  36.4596633  27.9835742  34.8472694
  36.0999833  28.6285899  35.6489464  35.2876633  27.6075742  33.9282694
  35.6465034  26.9621417  33.1265529  34.5273623  27.0810269  34.5051499
  34.8562882  28.5123651  33.5000529  37.0156633  26.7285742  35.5432694
  37.8265701  27.0134110  36.2136405  36.2224055  26.2489524  36.1166858
  37.3923584  26.0332493  34.7931207  39.7086633  29.8115742  33.7722694
  40.3026633  29.1005742  32.9592694  39.8886633  31.1475742  33.7942694
  39.3507113  31.6821147  34.4613327  40.7686633  31.8585742  32.8982694
  40.8550376  31.3136914  31.9581942  40.2016633  33.2565742  32.6052694
  40.1178612  33.8176314  33.5360176  40.8680923  33.7837580  31.9225909
  39.2163094  33.1613006  32.1490897  42.1616633  31.9725742  33.4902694
  43.0026633  32.7245742  33.0012694  42.4416633  31.1935742  34.5502694
  41.6717661  30.7163029  34.9970017  43.7616633  31.0155742  35.0932694
  44.4845459  31.6061667  34.5304725  43.7816633  31.4835742  36.5672694
  43.4535255  32.5229801  36.5750252  43.0582383  30.8707038  37.1049925
  45.1556633  31.3745742  37.2522694  45.4834417  30.3402093  37.1485806
  45.8373280  32.0275501  36.7072394  45.1526633  31.7625742  38.7332694
  44.3217735  31.2976203  39.2638720  46.0904220  31.4895453  39.2171735
  44.9926633  33.2535742  38.8012694  45.7823340  33.7976552  38.4842595
  43.8926633  33.9015742  39.2122694  42.7866633  33.2725742  39.5732694
  42.7508888  32.2636148  39.5446127  41.9829369  33.8040956  39.8759383
  43.8966633  35.2325742  39.3012694  44.7297418  35.7493790  39.0583845
  43.0665964  35.7174169  39.6111329  44.1456633  29.5445742  34.9992694
  43.3676633  28.6585742  35.3642694  45.3596633  29.2295742  34.4952694
  45.8766830  29.9667638  34.0377309  45.9076633  27.8855742  34.4682694
  45.1255861  27.1679452  34.2203516  47.0336633  27.7895742  33.3892694
  46.6471006  28.2932961  32.5033051  47.9084916  28.3249126  33.7583061
  47.4266633  26.3605742  33.0302694  47.1316633  25.4405742  33.8382694
  48.0536633  26.1755742  31.9512694  46.3686633  27.4865742  35.8692694
  47.5326633  27.6345742  36.2452694  45.4536633  26.9535742  36.7042694
  44.4924220  26.9165929  36.3964595  45.7506633  26.5945742  38.0812694
  46.4157985  27.3132913  38.5599552  44.4816633  26.4355742  38.9222694
  44.7350113  26.0822570  39.9218104  43.7936633  27.8205742  39.0232694
  43.5395813  28.1743596  38.0240803  42.8851201  27.7329424  39.6190636
  44.4717067  28.5299236  39.4978005  43.5226633  25.3425742  38.3902694
  43.0810607  25.7075397  37.4629679  44.1138832  24.4503711  38.1840365
  42.4066633  24.9975742  39.3872694  41.8146886  25.8892429  39.5936496
  41.7645755  24.2261906  38.9620755  42.8475117  24.6320762  40.3147196
  46.6836633  25.3855742  38.2032694  47.2386633  25.1165742  39.2742694
  46.9076633  24.6125742  37.1142694  46.2500975  24.6679804  36.3496539
  47.9376633  23.5915742  37.0632694  47.9501798  23.0568679  38.0130229
  47.7006633  22.5655742  35.9182694  46.6622534  22.2392783  35.9760209
  47.8736268  23.0577316  34.9612089  48.6156633  21.3625742  36.0402694
  48.3656633  20.3585742  36.9912694  47.4868049  20.4398634  37.6308783
  49.2296633  19.2625742  37.1232694  49.0376637  18.5160595  37.8939534
  50.3406633  19.1365742  36.2932694  51.1636633  18.0015742  36.4352694
  50.8611327  17.4023639  37.1215798  50.5976633  20.1185742  35.3302694
  51.4582374  20.0224572  34.6682467  49.7456633  21.2285742  35.2172694
  49.9563371  22.0046488  34.4814536  49.3366633  24.1885742  37.0362694
  50.2076633  23.7375742  37.7762694  49.5656633  25.2395742  36.2232694
  48.8022448  25.6509396  35.7055146  50.8916633  25.7945742  36.0482694
  51.6574222  25.0499483  36.2656279  51.0376633  26.2365742  34.5802694
  50.2777301  26.9906840  34.3755274  52.0274507  26.6754800  34.4546407
  50.8706633  25.0645742  33.6042694  51.5652622  24.2783862  33.9001438
  49.8482072  24.6969925  33.6912716  51.1456633  25.4685742  32.1532694
  50.5572883  26.3578366  31.9271580  52.2062080  25.7010327  32.0567952
  50.7786633  24.3545742  31.1772694  51.3956947  23.4770360  31.3704001
  49.7273868  24.0921005  31.2956945  51.0146633  24.8275742  29.8012694
  51.9888315  25.0704332  29.6911990  50.7741715  24.0959039  29.1478765
  50.4426833  25.6404627  29.6219641  51.1846633  26.9845742  36.9462694
  52.3306633  27.4185742  37.0572694  50.1676633  27.5165742  37.6402694
  49.2355307  27.1933268  37.4240768  50.3166633  28.5755742  38.6062694
  51.0735335  29.2948264  38.2933429  48.9476633  29.3065742  38.7062694
  48.5407096  29.4605722  37.7068833  48.2910345  28.6412130  39.2668344
  49.0466633  30.6395742  39.4222694  48.3726633  31.6075742  38.9792694
  49.7666633  30.6865742  40.4472694  50.8176633  27.9755742  39.9522694
  50.1736633  27.0575742  40.4782694  51.9446633  28.3935742  40.5472694
  52.8526633  29.3815742  39.9762694  52.2803798  30.2806395  39.7476355
  53.2688237  28.9724908  39.0556390  53.9226633  29.6215742  41.0442694
  53.6576262  30.4720108  41.6724509  54.8944729  29.7995347  40.5838158
  53.9276633  28.3185742  41.8422694  54.2304661  28.4965967  42.8741209
  54.5718374  27.5579160  41.4012044  52.4616633  27.8535742  41.8002694
  52.4089074  26.7663537  41.7431155  51.6836633  28.3335742  43.0092694
  51.9636633  27.8365742  44.1092694  50.7176633  29.2635742  42.8782694
  50.5948799  29.7253881  41.9884652  49.8876633  29.6825742  43.9902694
  50.5160298  29.8435908  44.8662422  49.1276633  31.0025742  43.6742694
  48.9422685  30.8634799  42.6091963  48.1775411  31.1175801  44.1959413
  49.9766633  32.2525742  43.8832694  51.1396633  32.1435742  44.3592694
  49.3736633  33.3515742  43.7292694  48.8876633  28.5925742  44.3942694
  48.3986633  28.5765742  45.5272694  48.5966633  27.6295742  43.4862694
  49.1006997  27.6499639  42.6112661  47.5656633  26.6205742  43.6642694
  47.0458311  26.8243498  44.6004046  46.5186633  26.5905742  42.5092694
  47.0391733  26.4161270  41.5676024  45.8359790  25.7637073  42.7050587
  45.7366633  27.8775742  42.4202694  46.3286633  29.0135742  41.8572694
  47.3467985  28.9427569  41.4745359  45.6376633  30.2225742  41.7812694
  46.1480197  31.1064683  41.3986870  44.3166633  30.3125742  42.2092694
  43.6716633  31.5525742  42.0192694  44.2359373  32.2092468  41.6045701
  43.6966633  29.1875742  42.7732694  42.6691181  29.2481912  43.1318458
  44.4086633  27.9745742  42.8752694  43.9307819  27.0970874  43.3108684
  48.1896633  25.2395742  43.8162694  48.7686633  24.6655742  42.8882694
  48.0556633  24.6445742  45.0152694  47.4259233  25.0729059  45.6786387
  48.7516633  23.4315742  45.4102694  49.5765411  23.2161715  44.7310953
  49.3006633  23.5155742  46.8342694  48.4641142  23.4631672  47.5310753
  50.2886633  22.3635742  47.1282694  51.1257751  22.4155996  46.4321099
  50.6596419  22.4540396  48.1491961  49.7782115  21.4076394  47.0110975
  49.9916633  24.8765742  47.0672694  49.2712526  25.6807523  46.9175760
  50.3767550  24.9194277  48.0860763  50.8154775  24.9916901  46.3628695
  47.7756633  22.2715742  45.3412694  46.5886633  22.4335742  45.6332694
  48.2206633  21.0675742  44.9402694  49.1728838  21.0019558  44.6100125
  47.4026633  19.8665742  44.9272694  46.4899828  20.0324048  44.3548939
  48.2026633  18.7155742  44.2622694  48.5956105  19.1159429  43.3277125
  49.0291621  18.4883190  44.9355856  47.4026633  17.4225742  43.9732694
  47.0048297  17.0597062  44.9209804  46.5781663  17.6837863  43.3098879
  48.2556633  16.3225742  43.3212694  48.5708093  16.6271754  42.3232714
  49.1344440  16.1115304  43.9306169  47.4346633  15.0635742  43.2052694
  47.5198822  14.4236319  43.9820003  46.6426633  14.7205742  42.1762694
  46.4416633  15.5315742  41.1432694  46.8921171  16.4352481  41.1195033
  45.8393343  15.2406862  40.3865108  46.0136633  13.5465742  42.1902694
  46.1355416  12.9211402  42.9739007  45.4177132  13.2871706  41.4171898
  46.9466633  19.3975742  46.3052694  47.7716633  19.0535742  47.1572694
  45.6316633  19.3305742  46.5612694  44.9700663  19.7321862  45.9123498
  45.1266633  18.7515742  47.7822694  45.8642342  18.0557415  48.1821508
  44.8386633  19.8365742  48.8512694  45.7342359  20.4482351  48.9604476
  44.0179277  20.4562109  48.4899613  44.4616633  19.2305742  50.2162694
  43.5542837  18.6427475  50.0776226  45.2760195  18.5740194  50.5226380
  44.2226633  20.2945742  51.3052694  45.1196311  20.9132243  51.3338997
  43.3779273  20.8956676  50.9688066  43.9336633  19.7475742  52.7102694
  43.6520836  20.5688963  53.3692409  43.1171866  19.0272694  52.6590236
  45.1436633  19.0835742  53.2402694  45.9002304  19.7509606  53.2882398
  44.9528048  18.7239693  54.1645839  45.4045017  18.3222172  52.6300252
  43.8736633  17.9415742  47.5002694  42.7996633  18.4815742  47.2352694
  43.9636633  16.5955742  47.5792694  44.8308824  16.1751039  47.8813209
  42.8466633  15.7145742  47.2422694  43.1074099  14.6999540  47.5433612
  41.9697976  16.0443447  47.7994564  42.5226633  15.7215742  45.7662694
  43.3836633  15.3875742  44.9442694  41.2866633  16.1415742  45.4242694
  40.7046960  16.4669041  46.1829353  40.7306633  16.1355742  44.0852694
  41.2295094  15.3826004  43.4751202  39.2096633  15.7995742  44.1462694
  38.6727602  16.5432132  44.7351967  38.8267904  15.7995641  43.1257262
  39.0086633  14.4225742  44.7632694  39.7906633  13.5065742  44.4082694
  38.0936633  14.2945742  45.6172694  40.9216633  17.4855742  43.3822694
  40.5706633  17.6555742  42.2122694  41.5206633  18.4935742  44.0582694
  41.8714696  18.3240748  44.9900978  41.5926633  19.8375742  43.5332694
  41.4706985  19.7632953  42.4526647  40.4426633  20.7015742  44.1022694
  40.5562002  20.7927071  45.1825028  40.4736419  21.6925204  43.6493167
  39.4866407  20.2291840  43.8765094  42.9376633  20.4905742  43.7882694
  43.7986633  19.9895742  44.5212694  43.1716633  21.6375742  43.1322694
  42.4747905  21.9307652  42.4625630  44.3116633  22.4885742  43.3472694
  45.0378137  21.9715296  43.9745410  44.9836633  22.8565742  42.0232694
  44.2405750  23.3352132  41.3854419  45.7886468  23.5606785  42.2338368
  45.5536633  21.6295742  41.3092694  46.2661669  21.1351352  41.9695492
  44.7381914  20.9445179  41.0773090  46.2526633  22.0365742  40.0252694
  46.4461472  21.1773405  39.3831009  45.6780531  22.7801754  39.4730195
  47.5596633  22.6405742  40.4232694  47.5171258  23.6011066  40.7325711
  48.7326633  21.9825742  40.5262694  48.7896633  20.6695742  40.3962694
  47.9449186  20.1457877  40.2169537  49.6777354  20.1952879  40.4767679
  49.8476633  22.6845742  40.6182694  49.8075324  23.6937456  40.6103546
  50.7352668  22.2089696  40.6961084  43.8166633  23.7535742  43.9792694
  42.9196633  24.4095742  43.4272694  44.3466633  24.1215742  45.1462694
  45.1955762  23.6774709  45.4659856  43.7406633  25.1215742  45.9872694
  42.9324811  25.6231712  45.4549713  43.1576633  24.4505742  47.2512694
  44.0161500  23.9646589  47.7149352  42.7721062  25.2207288  47.9193321
  42.0556633  23.4025742  46.9842694  42.4405352  22.6468252  46.2995666
  41.6286633  22.7315742  48.3002694  41.2432231  23.4866832  48.9853570
  40.8512514  21.9949317  48.0975643  42.4884003  22.2367828  48.7520814
  40.8296633  24.0085742  46.2772694  41.1334676  24.4292272  45.3187010
  40.0836641  23.2311718  46.1122482  40.4026072  24.7949866  46.8995858
  44.7466633  26.1855742  46.4052694  45.9396633  25.8865742  46.5222694
  44.3516633  27.4285742  46.6602694  42.9786633  27.9135742  46.4952694
  42.3295157  27.3217596  47.1406090  42.6886902  27.7655440  45.4550282
  43.0076633  29.3855742  46.8862694  42.7227559  29.5236607  47.9292742
  42.3498131  29.9766843  46.2491482  44.4736633  29.7585742  46.6532694
  44.7264437  30.5700038  47.3357524  44.7032061  30.0594475  45.6310733
  45.2736633  28.4975742  47.0212694  46.1815222  28.3884203  46.4279940
  45.6276633  28.4475742  48.5062694  45.2926633  29.3735742  49.2502694
  46.3446633  27.4015742  48.9732694  46.6930310  26.7565124  48.2785504
  46.5656633  27.0865742  50.3852694  45.6046752  26.9033016  50.8659068
  47.4526633  25.8325742  50.5602694  48.3552837  26.0506356  49.9894587
  47.7052974  25.7377098  51.6163361  46.8346633  24.5115742  50.0592694
  46.5948851  24.5941628  48.9991815  47.8516633  23.3785742  50.2672694
  48.0915979  23.2950667  51.3272490  47.4258566  22.4384942  49.9165001
  48.7599644  23.5973334  49.7058125  45.5106633  24.1625742  50.7632694
  44.7843729  24.9558544  50.5863280  45.1250625  23.2228299  50.3679290
  45.6838655  24.0616051  51.8346728  47.1486633  28.1995742  51.2462694
  46.7756633  28.3765742  52.3952694  48.0556633  29.0135742  50.6782694
  48.3589513  28.8049278  49.7377470  48.6586633  30.1405742  51.3602694
  49.0316272  29.8411468  52.3397286  49.8426633  30.6575742  50.5192694
  49.5026159  30.7590408  49.4886523  50.1261035  31.6365119  50.9058476
  51.0536633  29.7195742  50.5672694  51.2262734  29.4390587  51.6063159
  50.8177097  28.8286336  49.9853306  52.3156633  30.3805742  50.0002694
  52.5113101  31.2625393  50.6101538  53.1292886  29.6659217  50.1243058
  52.2166633  30.7895742  48.5302694  51.8561209  29.9507114  47.9349385
  51.5315815  31.6307143  48.4242248  53.5506633  31.1835742  48.0622694
  54.1855276  30.4041599  48.1600464  53.4997211  31.4565519  47.0911937
  53.8847532  31.9611471  48.6135074  47.7056633  31.2915742  51.6412694
  47.9956633  32.1405742  52.4862694  46.5426633  31.3425742  50.9712694
  46.3556087  30.6441685  50.2660464  45.5486633  32.3615742  51.2052694
  45.9932032  33.2002516  51.7410900  44.9876633  32.8775742  49.8552694
  44.7448839  32.0899505  49.1419628  44.0873000  33.4459201  50.0885696
  45.9346633  33.8345742  49.1422694  45.9276633  35.1995742  49.1922694
  45.1126070  35.6623092  49.7487399  46.9986633  35.7115742  48.4982694
  47.2012335  36.6919416  48.3643118  47.7296633  34.6745742  47.9932694
  48.8876633  34.6615742  47.2342694  49.3376179  35.6196187  46.9739037
  49.4076633  33.4245742  46.8492694  50.3352691  33.3795354  46.2786392
  48.7576633  32.2305742  47.1832694  49.1489896  31.2655507  46.8612557
  47.5836633  32.2425742  47.9422694  47.1077468  31.2940938  48.1912457
  47.0806633  33.4725742  48.3512694  44.4156633  31.7975742  52.0382694
  43.5376633  32.5275742  52.4732694  44.4016633  30.4785742  52.3142694
  45.1703253  29.8866901  52.0333225  43.2496633  29.8595742  52.9302694
  42.3610156  30.4535246  52.7166636  43.0286633  28.4295742  52.3912694
  43.9904633  27.9167101  52.3944760  42.3425249  27.9181414  53.0663625
  42.4476633  28.4205742  50.9662694  41.3741620  28.5900055  51.0498697
  42.9041376  29.2472629  50.4219174  42.7386633  26.8775742  50.0602694
  41.6746633  25.7725742  51.0202694  40.6460032  26.1306002  50.9781407
  41.7258882  24.7662511  50.6045887  42.0103017  25.7543427  52.0571473
  43.3266633  29.8395742  54.4422694  44.3516633  29.5355742  55.0482694
  42.1916633  30.1705742  55.0902694  41.4490993  30.5861159  54.5461892
  42.0096633  30.0495742  56.5132694  42.8065048  30.6176358  56.9933202
  40.6586633  30.6745742  56.9002694  39.8502782  30.1110154  56.4344205
  40.5423184  30.6476080  57.9837070  40.6245904  31.7086599  56.5573333
  42.1146633  28.6005742  57.0242694  41.8346633  27.6705742  56.2612694
  42.5186633  28.3425742  58.2732694  43.0996633  29.3535742  59.1352694
  42.3846109  30.1738029  59.1987136  44.0121061  29.7041801  58.6529598
  43.3706633  28.7035742  60.4942694  42.8249563  29.2411413  61.2697207
  44.4385749  28.7419564  60.7091945  42.8876633  27.2505742  60.3732694
  42.0050440  27.0456668  60.9791533  43.7011659  26.5949644  60.6838960
  42.5656633  27.0195742  58.8832694  43.4213139  26.5016565  58.4500010
  41.3156633  26.1855742  58.6812694  41.4296633  25.0545742  58.2112694
  40.1176633  26.7255742  58.9772694  40.1279823  27.6465363  59.3917831
  38.8476633  26.0475742  58.8452694  38.8787353  25.0867850  59.3590961
  37.7246633  26.9125742  59.4782694  36.8457579  26.2681531  59.4968743
  38.0551688  27.1049560  60.4989826  37.3646633  28.2615742  58.7862694
  37.3521285  28.0024738  57.7275859  36.3523416  28.4981258  59.1139086
  38.2616633  29.4695742  59.0012694  39.3266633  29.4065742  59.6622694
  37.8496633  30.5465742  58.4992694  38.5396633  25.6775742  57.4002694
  37.9366633  24.6565742  57.0872694  38.9966633  26.5075742  56.4472694
  39.4000317  27.3912448  56.7238911  38.8936633  26.2115742  55.0292694
  37.8502464  25.9389652  54.8709506  39.2306633  27.3825742  54.1272694
  40.3122318  27.4929422  54.0489831  38.6446633  27.1125742  52.7412694
  37.5629981  27.0025449  52.8186883  38.8780720  27.9461392  52.0788580
  39.0745251  26.1962613  52.3366832  38.6336633  28.5915742  54.5612694
  38.8749279  29.3010175  53.9612012  39.7786633  25.0535742  54.5842694
  39.3606633  24.1765742  53.8332694  41.0516633  25.0235742  55.0382694
  41.3561542  25.7979831  55.6106989  42.0086633  23.9525742  54.7532694
  42.0690395  23.7171674  53.6907076  43.4036633  24.3205742  55.2752694
  43.2873692  24.7223700  56.2818161  44.3746633  23.1055742  55.3112694
  44.4918279  22.7034981  54.3049355  45.3454033  23.4266648  55.6889801
  43.9680348  22.3340865  55.9651496  44.0206633  25.4755742  54.4572694
  44.4102762  25.0518673  53.5316480  43.2207817  26.1789494  54.2258555
  45.1476633  26.2085742  55.1982694  45.9481709  25.5058930  55.4296273
  45.5375137  27.0080666  54.5682474  44.7586766  26.6329734  56.1238365
  41.6346633  22.6275742  55.3872694  41.7776633  21.5625742  54.7532694
  41.2186633  22.6465742  56.6592694  41.2323627  23.5411395  57.1279533
  40.8796633  21.4715742  57.4332694  41.4696487  20.6186604  57.0977782
  41.1826633  21.7245742  58.9392694  40.8255386  22.7018072  59.2641954
  40.7445861  20.9503594  59.5691741  42.6776633  21.7005742  59.1982694
  43.3676633  20.4805742  59.1132694  42.8107114  19.5785361  58.8598296
  44.7456633  20.4095742  59.3472694  45.2584455  19.4494006  59.2905088
  45.4636633  21.5675742  59.6532694  46.5366641  21.5182132  59.8385597
  44.7986633  22.7945742  59.7212694  45.3593413  23.7052756  59.9318954
  43.4136633  22.8555742  59.5192694  42.8910446  23.8077791  59.6102387
  39.4466633  20.9845742  57.2122694  39.2516633  19.8305742  56.8292694
  38.4236633  21.8545742  57.3632694  38.6321064  22.8397490  57.4412527
  37.0346633  21.4365742  57.4382694  36.9744141  20.3627248  57.6152344
  36.3256633  22.1745742  58.6112694  36.3167468  23.2412676  58.3872493
  35.3009452  21.8079982  58.6718906  37.0276633  21.9415742  59.9432694
  37.5406633  20.8175742  60.1722694  37.0556633  22.9045742  60.7512694
  36.2776633  21.7335742  56.1352694  35.1156633  21.3665742  55.9762694
  36.9356633  22.4015742  55.1492694  37.8591775  22.7362970  55.3841768
  36.3546633  22.8095742  53.8702694  37.0877686  23.3991793  53.3197954
  35.9436633  21.5935742  53.0012694  35.1714479  21.0546337  53.5502010
  35.5227369  21.9888589  52.0767852  37.1026633  20.6325742  52.6682694
  37.6883461  21.0626286  51.8557857  37.7314782  20.5267821  53.5522953
  36.5796633  19.2575742  52.2472694  36.1223750  18.7401505  53.0906312
  35.8530276  19.3480375  51.4398560  37.7456633  18.4435742  51.7572694
  38.6666218  18.8508954  51.8348842  37.6326633  17.2105742  51.2422694
  36.4486633  16.6125742  51.1512694  35.6190644  17.0900889  51.4735200
  36.3842823  15.6835390  50.7603112  38.7046633  16.5585742  50.7922694
  39.6140077  16.9956865  50.8383744  38.6026706  15.6304250  50.4072561
  35.2256633  23.8235742  54.0232694  34.2836633  23.8805742  53.2232694
  35.3336633  24.6995742  55.0372694  36.1519312  24.6240274  55.6244913
  34.3316633  25.6915742  55.3782694  33.3561213  25.4219692  54.9736334
  34.2066633  25.8435742  56.8942694  35.2139410  25.7863051  57.3068358
  33.5396633  27.1655742  57.3442694  32.5321109  27.2233509  56.9324428
  33.4890069  27.1954712  58.4326814  34.1274252  28.0103327  56.9850750
  33.3916633  24.6435742  57.4122694  33.9095764  23.7173406  57.1633531
  33.2816252  24.7182739  58.4941249  32.4062313  24.6447168  56.9464117
  34.6746633  27.0135742  54.7252694  35.7426633  27.5855742  54.9392694
  33.7636633  27.5625742  53.9042694  32.9008071  27.0701212  53.7224215
  33.9696633  28.8455742  53.2652694  34.9710505  29.2007560  53.5085155
  33.8306633  28.7735742  51.7232694  32.8908792  28.2873932  51.4614808
  33.8198468  29.8021122  51.3625860  34.9696633  28.0335742  51.0882694
  34.9386633  26.6405742  50.9322694  34.0904787  26.0762219  51.3198116
  35.9866633  25.9735742  50.2842694  35.9473953  24.8907392  50.1658290
  37.0666633  26.6935742  49.7692694  38.1166633  26.0135742  49.1232694
  37.9862598  25.0629074  49.0945063  37.1106633  28.0825742  49.9202694
  37.9449575  28.6523587  49.5111250  36.0776633  28.7425742  50.6002694
  36.1289099  29.8202195  50.7556865  32.9306633  29.8125742  53.7942694
  31.7266633  29.5655742  53.6592694  33.3386633  30.9385742  54.4072694
  34.3288043  31.0611053  54.5644513  32.4256633  31.9485742  54.9292694
  31.4962120  31.8277094  54.3728421  32.1006633  31.9315742  56.4482694
  31.2279910  32.5592870  56.6286025  31.8106633  30.5045742  56.9262694
  32.6831093  29.8763354  56.7466768  31.5856697  30.5167472  57.9927256
  30.9566691  30.1043100  56.3798418  33.1176633  32.4185742  57.3132694
  32.8167125  32.3644884  58.2232714  33.0076633  33.2815742  54.5462694
  34.1246633  33.3515742  54.0222694  32.3196633  34.4025742  54.7992694
  31.3322692  34.3335786  55.0002468  32.9036633  35.7235742  54.6662694
  33.4427345  35.9007063  53.7356107  31.8146633  36.7805742  54.8322694
  31.0014112  36.5499051  54.1441464  31.2716633  36.8115742  56.2792694
  32.0843053  37.0426570  56.9679742  30.4982627  37.5752554  56.3613869
  30.8489988  35.8387000  56.5302070  32.2736633  38.1695742  54.3462694
  31.5286986  38.8945055  54.6742985  33.2274704  38.3866204  54.8271460
  32.4376633  38.2585742  52.8192694  31.4840874  38.0420903  52.3376807
  32.7624111  39.2625766  52.5461079  33.1828581  37.5342031  52.4905278
  34.0956633  35.9545742  55.6102694  35.0196633  36.7155742  55.3242694
  34.1436633  35.2545742  56.7652694  33.3629436  34.6546778  56.9904372
  35.2176633  35.3745742  57.7292694  35.5463216  36.4125801  57.7805213
  34.7526633  34.9315742  59.1412694  34.3895416  33.9080284  59.0485550
  35.6327881  34.9474757  59.7840971  33.6436633  35.8185742  59.7622694
  32.7285222  35.6564757  59.1927593  33.4764009  35.5436651  60.8036869
  34.0016633  37.3065742  59.7002694  33.2826633  38.0965742  59.0902694
  35.1476633  37.6835742  60.3142694  35.4280426  38.6537983  60.3018619
  35.7171595  36.9929350  60.7820225  36.4616633  34.5905742  57.3352694
  37.5666633  34.9045742  57.7802694  36.3306633  33.5675742  56.4602694
  35.4456852  33.0832027  56.4123369  37.4776633  32.9805742  55.7782694
  38.3212618  33.0476594  56.4652484  37.3256633  31.4985742  55.3192694
  38.2823099  31.2018783  54.8892717  37.1322812  30.9090796  56.2154834
  36.2876633  31.2725742  54.3692694  36.2608319  30.3406754  54.1402618
  38.0126633  33.8925742  54.6782694  39.2266633  33.9975742  54.5212694
  37.1436633  34.6605742  53.9642694  36.1678854  34.4004960  53.9820509
  37.5526633  35.7665742  53.0922694  38.2810495  35.3850995  52.3767069
  36.3686633  36.4125742  52.3032694  35.6114721  36.4875007  53.0837480
  36.6467454  37.4125442  51.9703575  35.8076633  35.6225742  51.1252694
  36.4866633  34.7495742  50.5312694  34.6706633  35.9865742  50.7252694
  38.3296633  36.8785742  53.8372694  39.2706633  37.4575742  53.2902694
  37.9946633  37.2035742  55.1142694  37.1026714  36.8784684  55.4588795
  38.7876633  38.1045742  55.9692694  38.9378643  39.0343886  55.4206493
  38.1426633  38.4325742  57.3232694  37.9770424  37.5011202  57.8646217
  39.0496633  39.3645742  58.1652694  39.2153670  40.2964871  57.6247312
  38.5660992  39.5789874  59.1183136  40.0065611  38.8748965  58.3460009
  36.7926633  39.1405742  57.0932694  36.1308886  38.4865349  56.5254764
  36.3352931  39.3731506  58.0549452  36.9559484  40.0633325  56.5365326
  40.2206633  37.6215742  56.1992694  41.1676633  38.4035742  56.1192694
  40.4456633  36.3075742  56.4302694  39.6602761  35.6858991  56.5598314
  41.7896633  35.7515742  56.5232694  42.3411609  36.2307229  57.3321984
  41.7036633  34.2285742  56.8152694  41.2168627  34.0376277  57.7716500
  41.1199848  33.7751326  56.0141388  43.0366633  33.4955742  56.8512694
  43.8736633  33.2065742  55.8092694  43.5172219  33.4657632  54.8123389
  45.0266633  32.6295742  56.2672694  45.8121965  32.3387711  55.7029374
  44.9336633  32.5005742  57.6242694  45.8126633  31.9805742  58.5482694
  46.7827556  31.6412041  58.1851613  45.4136633  31.9185742  59.8862694
  46.0707398  31.4759007  60.6348618  44.1686633  32.4215742  60.2872694
  43.8502978  32.3795391  61.3288912  43.2956633  32.9945742  59.3562694
  42.3557924  33.4225013  59.7050129  43.6836633  33.0095742  58.0282694
  42.5836633  35.9695742  55.2372694  43.7276633  36.4355742  55.2582694
  41.9556633  35.6815742  54.0812694  41.0283751  35.2893820  54.1614018
  42.5076633  35.8825742  52.7482694  43.4270415  35.3042998  52.6563922
  41.5316633  35.4385742  51.6352694  40.6820247  36.1213657  51.6383488
  42.0520901  35.5112871  50.6802988  41.0686633  34.1035742  51.8232694
  40.4674805  33.8702630  51.1121119  42.8516633  37.3345742  52.4662694
  43.8746633  37.6575742  51.8692694  41.9956633  38.2645742  52.9422694
  41.0946960  37.9283928  53.2510401  42.2316633  39.6945742  52.9402694
  42.4516962  40.0333802  51.9278983  40.9736633  40.4475742  53.4532694
  40.1270658  40.2148561  52.8073482  40.7289596  40.1823642  54.4818042
  41.1406633  41.9435742  53.4222694  41.0336633  42.6615742  52.2242694
  40.8159683  42.1291237  51.2984156  41.2036633  44.0505742  52.2092694
  41.1074573  44.5988642  51.2721338  41.4956633  44.7335742  53.3902694
  41.6252488  45.8157950  53.3799865  41.6216633  44.0275742  54.5862694
  41.8580024  44.5568551  55.5093651  41.4446633  42.6395742  54.6012694
  41.5427961  42.0877175  55.5361084  43.4836633  40.0815742  53.7312694
  44.2906633  40.8755742  53.2592694  43.7206633  39.4915742  54.9252694
  42.9942047  38.9175479  55.3288176  44.9786633  39.6425742  55.6642694
  45.0741491  40.6940808  55.9350379  44.8999209  39.0405278  56.5694982
  46.2096633  39.2185742  54.8972694  47.2506633  39.8705742  54.9642694
  46.1086633  38.1255742  54.1122694  45.2998698  37.5335141  54.2364359
  47.1606633  37.6795742  53.2002694  48.1208871  37.7068414  53.7153674
  46.9296633  36.2665742  52.6742694  46.0044546  36.2467389  52.0983399
  48.1066633  35.8335742  51.7722694  49.0322174  35.8527170  52.3476685
  47.9297237  34.8233380  51.4031954  48.1897125  36.5187144  50.9285944
  46.7926633  35.2885742  53.8602694  45.9478840  35.5860968  54.4815023
  46.6276696  34.2795011  53.4825815  47.7055402  35.3084141  54.4555532
  47.3886633  38.6645742  52.0572694  48.5236633  39.0325742  51.7592694
  46.3016633  39.1835742  51.4472694  45.4139324  38.7570535  51.6711294
  46.3266633  40.2425742  50.4452694  46.9495555  39.9492632  49.6002409
  44.8886633  40.5025742  49.9332694  44.6570472  39.6276476  49.3258514
  44.2363282  40.5211512  50.8063180  44.6666633  41.7815742  49.0982694
  44.8629334  42.6350639  49.7472180  45.5646633  41.8635742  47.8632694
  45.3686219  41.0106026  47.2135725  45.3564264  42.7868615  47.3226412
  46.6099529  41.8517909  48.1720268  43.2116633  41.8745742  48.6432694
  42.5587348  41.9027669  49.5156162  43.0714700  42.7818672  48.0556756
  42.9649186  41.0055537  48.0333354  46.9586633  41.5315742  50.9542694
  47.7546633  42.1645742  50.2552694  46.6956633  41.9485742  52.2052694
  45.9616346  41.4963420  52.7313752  47.4196633  43.0415742  52.8322694
  47.2848345  43.9456699  52.2385259  46.9206633  43.3145742  54.2662694
  47.0308003  42.3374269  54.7365377  47.5888256  44.0272697  54.7497198
  45.4696633  43.7925742  54.4142694  44.7979044  43.1029747  53.9031008
  45.1156633  43.8375742  55.9132694  45.7867474  44.5273674  56.4250607
  44.0865410  44.1758171  56.0340991  45.2229325  42.8414149  56.3425251
  45.2506633  45.1365742  53.7152694  45.4745864  45.0351506  52.6533508
  44.2129983  45.4463697  53.8392832  45.9082307  45.8866454  54.1546978
  48.9146633  42.7685742  52.9182694  49.7366633  43.6285742  52.6172694
  49.3266633  41.5385742  53.2772694  48.6664206  40.8779031  53.6615774
  50.7276633  41.1695742  53.2442694  51.3054895  41.8814421  53.8337270
  50.9446633  39.7505742  53.8292694  50.4086747  39.6943282  54.7767143
  50.5745132  38.9769345  53.1565358  52.3906633  39.4095742  54.1282694
  53.0526633  39.5245742  55.3132694  52.4586995  39.8580719  56.1642019
  54.3796633  39.1805742  55.1702694  55.0850126  39.1894374  55.8931133
  54.5836633  38.8105742  53.8542694  55.7296633  38.3715742  53.1932694
  56.6547646  38.2998247  53.7652293  55.6216633  38.0485742  51.8302694
  56.4930329  37.6955443  51.2787399  54.4016633  38.1735742  51.1612694
  54.3192745  37.9258007  50.1030067  53.2536633  38.6175742  51.8222694
  52.3191678  38.6983841  51.2670318  53.3626633  38.9345742  53.1742694
  51.3536633  41.2915742  51.8472694  52.4446633  41.8195742  51.7042694
  50.6366633  40.8475742  50.7822694  49.7839268  40.3465650  50.9870369
  51.0206633  41.0165742  49.3862694  51.9957786  40.5573291  49.2239637
  49.9936633  40.3545742  48.4252694  49.0469874  40.8579772  48.6214568
  50.3352370  40.6029482  47.4204123  49.7966633  38.8225742  48.5392694
  50.7587479  38.3382878  48.3720549  49.4343317  38.5748689  49.5369954
  48.7936633  38.3335742  47.4982694  49.2216633  37.9825742  46.3732694
  47.5656633  38.3085742  47.7922694  47.0633659  37.9802848  47.0429213
  51.1596633  42.4815742  48.9612694  52.1056633  42.8625742  48.2762694
  50.2216633  43.3645742  49.3742694  49.3897016  43.0052353  49.8201558
  50.3006633  44.7975742  49.1092694  50.5204507  44.9877578  48.0587348
  49.0026633  45.5145742  49.4972694  48.7319639  45.2220995  50.5118042
  49.1746633  47.0515742  49.4322694  49.4449334  47.3448748  48.4178585
  48.2385515  47.5346219  49.7123775  49.9617923  47.3590498  50.1207357
  47.8436633  45.0515742  48.5802694  48.0530817  45.4260322  47.5782585
  47.8536237  43.9616710  48.5697210  46.4636633  45.5455742  49.0322694
  46.4527871  46.6354707  49.0426222  45.7028182  45.1816892  48.3417611
  46.2533301  45.1711110  50.0340863  51.4946633  45.4465742  49.7792694
  52.2776633  46.1585742  49.1372694  51.7376633  45.1575742  51.0642694
  51.1517288  44.4847270  51.5376159  52.7646633  45.8375742  51.8332694
  52.9603786  46.8133340  51.3886489  52.3306633  46.0425742  53.3042694
  51.9042936  45.1496649  53.7614578  53.1734504  46.3892377  53.9022947
  51.2746633  47.1145742  53.3852694  51.6196633  48.4745742  53.4552694
  52.6728608  48.7517402  53.5005897  50.6336633  49.4675742  53.4672694
  50.9175367  50.5168930  53.5475601  49.2846633  49.1135742  53.3762694
  48.5124399  49.8822717  53.3466844  48.9296633  47.7665742  53.3232694
  47.8790892  47.4830689  53.2598738  49.9166633  46.7825742  53.3512694
  49.6363817  45.7292352  53.3468960  54.0876633  45.0885742  51.7662694
  55.0586633  45.4575742  52.4312694  54.1876633  44.0555742  50.9062694
  53.3274155  43.6614516  50.5530833  55.4436633  43.4715742  50.4682694
  56.2437535  43.8333955  51.1140558  55.4266633  41.9195742  50.5212694
  56.4448718  41.5771606  50.3365980  55.1243173  41.6323220  51.5283310
  54.5406633  41.3195742  49.5672694  54.5779067  40.3641146  49.6527663
  55.7706633  43.8735742  49.0402694  56.7936633  43.4645742  48.4782694
  54.8906633  44.6785742  48.4042694  54.0711285  44.9353377  48.9358093
  54.9236633  45.0045742  46.9892694  53.9371715  45.3719011  46.7064195
  55.9786633  46.0745742  46.6082694  56.9115046  45.6856651  47.0165045
  56.0412145  46.0994940  45.5203510  55.7396633  47.5025742  47.1422694
  55.6456108  47.4740216  48.2278290  56.9266633  48.4005742  46.7542694
  57.0210711  48.4299935  45.6687647  56.7582323  49.4093334  47.1312795
  57.8430417  47.9996603  47.1874196  54.4366633  48.1275742  46.6232694
  53.5905287  47.5134910  46.9315835  54.3255276  49.1310172  47.0341859
  54.4676683  48.1825082  45.5350967  54.9766633  43.7675742  46.0932694
  55.9326633  43.5475742  45.3352694  53.9596633  42.8885742  46.2092694
  53.2923189  43.0518604  46.9495994  53.7636633  41.7315742  45.3452694
  52.7452559  41.3749732  45.4994813  53.8782236  42.0677493  44.3147542
  54.7206633  40.6025742  45.6002694  55.0816633  39.8635742  44.6832694
  55.2176633  40.4255742  46.8392694  55.1578093  41.1750520  47.5136579
  55.9396633  39.2195742  47.2112694  56.5952423  39.0234751  46.3628235
  56.8086633  39.3775742  48.4812694  56.1656158  39.5653960  49.3411025
  57.3792949  38.4639062  48.6476743  57.4942611  40.2149084  48.3511683
  55.0166633  38.0185742  47.3782694  53.8516633  38.1455742  47.7362694
  55.5486633  36.8045742  47.1282694  56.4993467  36.7661401  46.7894138
  54.8246633  35.5495742  47.3012694  53.8338036  35.6229197  46.8530321
  55.6016633  34.3915742  46.6052694  55.7611277  34.7049076  45.5735269
  56.5625740  34.3165948  47.1143162  54.9526633  33.1155742  46.6212694
  55.5038289  32.4705926  46.1720312  54.6696633  35.2555742  48.7912694
  55.6956633  35.2975742  49.4772694  53.4936633  34.9955742  49.3762694
  52.1976633  35.1365742  48.7212694  52.0254851  34.2609793  48.0953392
  52.2167421  36.0303152  48.0976011  51.1906633  35.2465742  49.8672694
  50.2302155  34.8186338  49.5800305  51.0512076  36.2872494  50.1599273
  51.8426633  34.4475742  50.9912694  51.6437411  33.3790817  50.9084876
  51.5243536  34.8009692  51.9720296  53.3416633  34.7155742  50.7992694
  53.6426871  35.6154717  51.3356158  54.1506633  33.5445742  51.2912694
  54.4676633  32.6545742  50.4902694  54.4496633  33.5235742  52.6002694
  54.2303894  34.3740408  53.0989926  55.2246633  32.5025742  53.2862694
  55.5373104  32.8822251  54.2590058  54.3976633  31.2035742  53.5022694
  54.0839933  30.8052537  52.5373595  55.0343127  30.4759110  54.0055424
  53.1816633  31.4795742  54.3512694  53.2826633  31.5575742  55.7502694
  54.2544314  31.4142961  56.2227496  52.1506633  31.8165742  56.5382694
  52.2377571  31.8381199  57.6245715  50.9086633  32.0195742  55.9332694
  49.7696633  32.3265742  56.7002694  49.9529423  32.3744899  57.6413924
  50.7956633  31.9445742  54.5472694  49.8245474  32.0897781  54.0740355
  51.9246633  31.6835742  53.7622694  51.8348155  31.6364154  52.6770028
  56.6156633  32.2455742  52.6832694  56.9066633  31.1155742  52.2852694
  57.4936633  33.2535742  52.5572694  57.3676633  34.5525742  53.2322694
  57.0501162  34.3680811  54.2585376  56.6010225  35.1277586  52.7131126
  58.7456633  35.2125742  53.1532694  59.2978063  35.0568105  54.0800783
  58.6468669  36.2816548  52.9651010  59.4246633  34.5095742  51.9722694
  60.5051069  34.4297363  52.0921295  59.2005939  35.0494660  51.0522643
  58.7986633  33.1045742  51.9222694  58.6191401  32.8637548  50.8744738
  59.6776633  32.0305742  52.5452694  59.8446633  32.0005742  53.7612694
  60.2336633  31.1165742  51.7192694  60.0406063  31.1663541  50.7291430
  61.1086633  30.0515742  52.2012694  61.7203742  29.7381176  51.3553061
  61.7472899  30.4901233  52.9680354  60.4106633  28.8455742  52.7752694
  61.0596633  27.9435742  53.2962694  59.0706633  28.7785742  52.6972694
  58.5673492  29.5116693  52.2183687  58.3086633  27.7065742  53.3062694
  58.9418778  27.0908724  53.9450571  57.1556633  28.2505742  54.1422694
  56.4701443  28.7840771  53.4838336  56.3996633  27.1135742  54.8582694
  57.0844705  26.5798674  55.5172816  55.5833918  27.5332082  55.4462395
  55.9958799  26.4226486  54.1182137  57.6856633  29.2625742  55.1782694
  58.1748789  30.0888531  54.6624852  56.8547982  29.6457003  55.7707028
  58.4024477  28.7694573  55.8348946  57.7536633  26.7675742  52.2532694
  57.0336633  27.1655742  51.3312694  58.0676633  25.4625742  52.3602694
  58.8405026  25.2003989  52.9553180  57.3806633  24.4185742  51.6262694
  57.3367512  24.6814002  50.5693430  58.1206633  23.0705742  51.7692694
  59.1530849  23.2389098  51.4628908  58.0947620  22.8024771  52.8254669
  57.5186633  21.9265742  50.9352694  56.4605486  21.8325745  51.1795199
  57.6268835  22.1677893  49.8778169  58.2306633  20.6025742  51.2322694
  59.1838761  20.6266901  50.7041571  58.4118244  20.5709782  52.3066445
  57.4446633  19.3565742  50.8102694  56.3919823  19.6035665  50.6725805
  57.8473387  18.9536003  49.8809881  57.5776633  18.3475742  51.8832694
  57.2042001  18.7206227  52.7443500  57.0666248  17.5147954  51.6274976
  58.5529917  18.1182504  52.0107220  55.9396633  24.2585742  52.0942694
  55.6646633  24.1725742  53.2922694  54.9746633  24.2245742  51.1612694
  55.2334256  24.3536397  50.1935486  53.5646633  24.1845742  51.4962694
  53.3667291  24.4539934  52.5337349  52.7686633  25.1065742  50.5692694
  52.9057901  24.7671403  49.5425848  51.2636633  25.0955742  50.9182694
  51.1256937  25.4353542  51.9447267  50.7281932  25.7607450  50.2408328
  50.8737941  24.0828520  50.8158250  53.3536633  26.5515742  50.5922694
  54.3679279  26.4851550  50.1986242  52.7407098  27.1484097  49.9168621
  53.3846633  27.2155742  51.9762694  53.9978518  26.6195133  52.6521474
  53.8075422  28.2165080  51.8902219  52.3706332  27.2827659  52.3703864
  53.1066633  22.7365742  51.5382694  52.7036633  22.1385742  50.5322694
  53.2156633  22.1205742  52.7272694  53.6267813  22.6678942  53.4699147
  52.9546633  20.7265742  52.9712694  52.3197299  20.3101704  52.1892421
  54.3096633  19.9605742  52.9722694  54.0592245  18.9056553  53.0841879
  54.7039973  20.1356431  51.9712941  55.3616633  20.3455742  54.0072694
  55.0766633  21.1165742  54.9532694  56.4786633  19.7855742  53.8082694
  52.0886633  20.5135742  54.2092694  51.4076633  21.4245742  54.6992694
  52.0496633  19.2805742  54.7382694  52.5132335  18.5476452  54.2205658
  51.3396633  18.9225742  55.9492694  50.2861995  19.1902459  55.8676292
  51.4456633  17.4015742  56.1632694  52.5033673  17.1408157  56.1263035
  51.0530271  17.1847135  57.1567020  50.6716633  16.5695742  55.1092694
  49.6650485  16.9774478  55.0172554  51.1869787  16.6559634  54.1526681
  50.5896633  15.0975742  55.5122694  51.6216633  14.5455742  55.9632694
  49.4746633  14.5345742  55.3602694  51.8276633  19.6615742  57.1962694
  51.0376633  20.0855742  58.0482694  53.1526633  19.8655742  57.3292694
  53.7659073  19.4168685  56.6639166  53.7476633  20.5855742  58.4322694
  53.2931863  20.2532047  59.3655863  55.2586633  20.3465742  58.5112694
  55.6867993  20.5582139  57.5314697  55.6730416  21.0377105  59.2452458
  55.6006633  18.8945742  58.9202694  54.8673389  18.4851709  59.6150536
  55.5916397  18.3126500  57.9986502  56.9886633  18.8285742  59.5492694
  57.1626633  19.5835742  60.5502694  57.8216633  18.0105742  59.1002694
  53.4516633  22.0745742  58.4362694  53.3196633  22.6865742  59.5022694
  53.3216633  22.7115742  57.2512694  53.6636266  22.2462856  56.4226157
  52.8086633  24.0725742  57.1192694  53.4134670  24.7580883  57.7128871
  52.8636633  24.5255742  55.6212694  53.9049672  24.7740142  55.4161769
  52.5328689  23.7500047  54.9304966  52.0496633  25.7675742  55.3022694
  52.5256633  27.0585742  55.5772694  53.5348774  27.1825404  55.9699769
  51.7186633  28.1815742  55.3522694  52.1097880  29.1760221  55.5672007
  50.4216633  28.0335742  54.8562694  49.7944086  28.9068497  54.6772678
  49.9296633  26.7535742  54.5892694  48.9123665  26.6262682  54.2191333
  50.7436633  25.6345742  54.7972694  50.3685428  24.6373885  54.5670407
  51.4026633  24.1955742  57.7032694  51.1546633  25.0505742  58.5552694
  50.4866633  23.2845742  57.3212694  50.7583301  22.6153668  56.6152539
  49.1046633  23.2845742  57.7762694  48.6610274  24.2673964  57.6170619
  48.2806633  22.2355742  56.9872694  48.7287412  21.2437912  57.0480299
  47.2489754  22.1895756  57.3359874  48.1966633  22.6445742  55.2122694
  47.4579780  21.5952911  54.8626304  48.9736633  23.0865742  59.2802694
  48.1556633  23.7235742  59.9452694  49.8166633  22.2105742  59.8652694
  50.3561124  21.5955612  59.2729410  49.9206633  22.0465742  61.3032694
  48.9356440  21.8692208  61.7349893  50.8246633  20.8355742  61.6222694
  50.4739643  19.9949916  61.0234954  51.8406690  21.0944466  61.3242468
  50.8106633  20.4445742  63.1152694  51.3070539  21.2526506  63.6525864
  49.7635566  20.3993425  63.4146417  51.4966633  19.1105742  63.4492694
  51.4943831  18.9381647  64.5255448  50.9914855  18.2846904  62.9484593
  52.9236633  19.1635742  62.9722694  53.1254022  18.6725588  62.1130228
  53.9356633  19.7845742  63.6112694  53.7656633  20.4165742  64.7612694
  52.8509398  20.4437774  65.1886347  54.5514084  20.8688643  65.2063961
  55.1526633  19.7845742  63.0462694  55.2939145  19.3241085  62.1585084
  55.9219585  20.2450378  63.5113035  50.4196633  23.2835742  62.0562694
  49.7956633  23.7135742  63.0212694  51.5106633  23.9305742  61.5852694
  52.0156634  23.5019806  60.8227855  52.0456633  25.1575742  62.1662694
  52.2376655  25.0130156  63.2294426  53.3766633  25.5425742  61.4702694
  53.3634104  25.1135168  60.4683545  53.4114887  26.6296828  61.3989801
  54.6226633  25.0365742  62.2302694  54.9991663  25.8784653  62.8112735
  54.2809631  24.2529650  62.9065088  55.7446633  24.4885742  61.3382694
  56.5848131  24.1354672  61.9362349  55.3831434  23.6776370  60.7059849
  56.2196633  25.6145742  60.4552694  56.4550219  26.4809929  60.9178970
  56.3326633  25.5505742  59.1172694  55.9986633  24.4575742  58.4472694
  55.6507416  23.6504623  58.9448846  56.0934935  24.4364495  57.4419532
  56.8066633  26.5975742  58.4422694  57.0785971  27.4337916  58.9391522
  56.8917377  26.5499429  57.4369872  51.0636633  26.3125742  62.1132694
  50.9446633  27.0975742  63.0472694  50.3086633  26.4375742  61.0102694
  50.4873118  25.8250047  60.2273629  49.2676633  27.4335742  60.8782694
  49.6694672  28.4386777  61.0064087  48.6756633  27.3175742  59.4632694
  49.5349289  27.1550224  58.8126246  48.0144473  26.4524354  59.4139913
  47.9156633  28.5685742  59.0032694  47.2239199  28.8903087  59.7817801
  48.9336633  29.6875742  58.7282694  49.6255103  29.3667311  57.9494843
  48.4085480  30.5845775  58.4000320  49.4896322  29.9058152  59.6400642
  47.0666633  28.2445742  57.7642694  46.3499187  27.4607334  58.0091578
  46.5313662  29.1391214  57.4459244  47.7155721  27.9036964  56.9575361
  48.1426633  27.2995742  61.9042694  47.6676633  28.2925742  62.4782694
  47.7306633  26.0455742  62.1682694  48.0608537  25.3473138  61.5174960
  46.8136633  25.6325742  63.2132694  45.9054824  26.2338624  63.1713272
  46.4306633  24.1445742  63.0272694  46.3442402  23.9524473  61.9578221
  47.2358979  23.5375387  63.4410389  45.1056633  23.7815742  63.7222694
  45.1705781  24.1320618  64.7523400  44.3088794  24.3172908  63.2062798
  44.7996633  22.2745742  63.7122694  44.6436874  21.9758744  62.6756649
  45.6722268  21.7574990  64.1114755  43.5626633  21.9055742  64.5422694
  43.7216163  22.2107208  65.5765421  42.6934953  22.4259489  64.1399556
  43.3306633  20.4435742  64.4892694  44.1357634  19.9612100  64.8624158
  42.5151180  20.2120113  65.0382363  43.1829265  20.1606778  63.5310197
  47.3366633  25.8715742  64.6372694  46.5796633  26.3015742  65.5042694
  48.6466633  25.6235742  64.8912694  49.1475211  25.1437131  64.1571208
  49.3576633  25.9205742  66.1382694  48.7786612  25.5449020  66.9819081
  50.7716633  25.2505742  66.1642694  51.1829410  25.3303054  65.1579927
  51.3872503  25.8273257  66.8545667  50.7606633  23.7565742  66.6032694
  50.3964916  23.8488491  67.6264826  50.0467188  23.1804820  66.0146266
  52.1226633  23.0365742  66.6062694  52.8576633  23.0765742  65.5812694
  52.3866633  22.3205742  67.6042694  49.5066633  27.4195742  66.4072694
  49.6886633  27.8465742  67.5432694  49.3856633  28.2655742  65.3632694
  49.2841862  27.8815462  64.4346553  49.3946633  29.7145742  65.5142694
  48.4620552  30.0857435  65.0893285  49.4147857  29.9240926  66.5837536
  50.5446633  30.4185742  64.8572694  50.7016633  31.6245742  65.0272694
  51.3556633  29.7305742  64.0342694  51.2779680  28.7237100  64.0173210
  52.3926633  30.3615742  63.2122694  53.0227627  30.9101125  63.9123977
  53.2586633  29.3595742  62.4602694  52.6137983  28.8520588  61.7428591
  54.4496633  29.9905742  61.7212694  55.0952700  30.4979134  62.4381366
  55.0158240  29.2111181  61.2113583  54.0836521  30.7107812  60.9895329
  53.8556633  28.4675742  63.3842694  54.4018913  27.8353509  62.9114810
  51.8086633  31.3415742  62.2112694  50.7596633  31.0875742  61.6052694
  52.4506633  32.5055742  62.0152694  53.2956886  32.6624608  62.5457580
  52.0016633  33.5455742  61.1192694  51.3179376  33.1216763  60.3837907
  51.2606633  34.6735742  61.8952694  51.9639380  35.0821507  62.6209202
  50.9975154  35.4446374  61.1711736  49.9836633  34.1965742  62.6272694
  50.2740876  33.3793024  63.2874371  49.6199043  35.0331291  63.2238910
  48.8766633  33.7225742  61.6872694  48.5629709  34.5191171  61.0125728
  49.1958316  32.8583556  61.1047256  47.7116633  33.3255742  62.5332694
  47.1656594  34.0831305  62.9180911  47.3966633  32.0725742  62.8782694
  48.1616633  31.0305742  62.5672694  49.0177183  31.1728309  62.0505171
  47.8832264  30.1015481  62.8491969  46.2226633  31.8885742  63.4782694
  45.6183168  32.6789835  63.6518162  45.9416793  30.9594089  63.7571932
  53.2206633  34.1085742  60.4072694  54.3556633  33.9325742  60.8612694
  53.0236633  34.7735742  59.2472694  52.0969288  34.7386307  58.8472175
  54.0456633  35.5435742  58.5542694  54.8939809  34.8902509  58.3502472
  53.5476633  36.1395742  57.2162694  52.5324172  36.5058927  57.3685372
  54.1992785  36.9738808  56.9565964  53.5546633  35.1155742  56.0812694
  54.5654397  34.7123615  56.0192102  52.8635919  34.3207727  56.3620060
  53.0766633  35.7765742  54.4632694  51.2876633  35.7275742  54.7312694
  51.0304931  36.3534186  55.5858344  50.7763856  36.0985285  53.8429627
  50.9770016  34.7012164  54.9266669  54.5356633  36.7255742  59.3522694
  53.7376633  37.4265742  59.9712694  55.8496633  37.0005742  59.2942694
  56.4510186  36.2995041  58.8856476  56.4546633  38.2125742  59.7992694
  56.1164789  38.3899718  60.8201811  58.0006633  38.1055742  59.8012694
  58.3036712  37.8622908  58.7828890  58.3869012  39.0888910  60.0696133
  58.5666633  37.0485742  60.7722694  58.2786614  37.3295137  61.7852989
  58.1216844  36.0853975  60.5224966  60.0906633  36.9435742  60.6862694
  60.4128271  36.6521192  59.6865878  60.5696219  37.8829820  60.9623328
  60.5186633  35.8805742  61.6592694  59.7999361  35.3993742  62.1807837
  61.7986633  35.5385742  61.8682694  62.7786633  36.1505742  61.2132694
  62.5600439  36.8809690  60.5508276  63.7380223  35.8827632  61.3806229
  62.1136633  34.5795742  62.7382694  61.3825118  34.1035353  63.2470960
  63.0821143  34.3331664  62.8848453  56.0536633  39.4265742  58.9712694
  55.7176633  39.2975742  57.7892694  56.0736633  40.6275742  59.5902694
  56.1705251  40.5853922  60.5947284  55.8836633  41.9285742  58.9702694
  54.8094494  42.0327526  58.8175909  56.3536633  43.0335742  59.9432694
  57.4290828  42.9479598  60.0989714  56.1250109  44.0119202  59.5205906
  55.8388414  42.9212643  60.8974414  56.5646633  42.1025742  57.6042694
  57.7566633  41.8075742  57.5092694  55.9096633  42.5445742  56.5352694
  54.4656633  42.7335742  56.4652694  54.1943975  43.5265571  57.1621863
  53.9876090  41.8028535  56.7707560  54.1576633  43.0975742  55.0132694
  54.0131560  44.1728985  54.9088929  53.2649191  42.5762976  54.6677554
  55.3966633  42.6235742  54.2502694  55.5544805  43.3143332  53.4219912
  55.3288353  41.6058068  53.8660189  56.5596633  42.7305742  55.2482694
  57.2896035  41.9351984  55.0977276  57.2636633  44.0785742  55.2062694
  56.9746633  44.9405742  56.0422694  58.1826633  44.2795742  54.2422694
  58.2247437  43.5545799  53.5403350  59.1336633  45.3765742  54.1582694
  59.8218348  45.3577025  55.0033511  59.9546633  45.2185742  52.8442694
  59.2658251  45.1612752  52.0014657  60.5583923  46.1220553  52.7586356
  60.8666633  43.9955742  52.8392694  61.0276633  43.3495742  53.9022694
  61.3816633  43.6855742  51.7332694  58.5596633  46.8045742  54.2112694
  59.1586633  47.7155742  54.7682694  57.3666633  47.0315742  53.6162694
  56.8400449  46.2337266  53.2903683  56.8126633  48.3565742  53.4012694
  57.5738518  49.1083996  53.6097154  56.3336633  48.5285742  51.9322694
  55.4228684  47.9606208  51.7425833  56.1357256  49.5906355  51.7875403
  57.4066633  48.0855742  50.9802694  58.5136633  48.8975742  50.6962694
  58.6011395  49.8719598  51.1769149  59.5056633  48.4645742  49.8002694
  60.3335241  49.1239999  49.5396815  59.4176633  47.1925742  49.2262694
  60.3816633  46.6905742  48.3302694  61.0948619  47.3103911  48.1606395
  58.3536633  46.3585742  49.5522694  58.3103508  45.3488827  49.1439221
  57.3416633  46.8125742  50.4012694  56.4867042  46.1730776  50.6207898
  55.6346633  48.6245742  54.3272694  54.8796633  49.5745742  54.1312694
  55.4236633  47.7705742  55.3532694  56.0206406  46.9591684  55.4263310
  54.3026633  47.8925742  56.2842694  53.4097186  48.2569957  55.7763856
  53.9646633  46.5745742  56.9812694  54.0649082  45.7759900  56.2462086
  54.8756633  46.2795742  58.1862694  54.7756035  47.0775491  58.9220164
  54.5855699  45.3310034  58.6381083  55.9118918  46.2209604  57.8532599
  52.6146633  46.5255742  57.4172694  52.4476945  45.6837525  57.8474531
  54.4286633  48.9755742  57.3402694  55.5296633  49.3765742  57.7432694
  53.2936633  49.4635742  57.8652694  52.4372967  49.2901792  57.3586435
  53.2276633  50.2675742  59.0792694  54.1856202  50.7818817  59.1561164
  52.1056633  51.3135742  59.1112694  52.1180425  51.8380195  60.0667296
  52.3276633  52.3145742  57.9782694  52.3149489  51.7908973  57.0223926
  51.5347641  53.0623691  57.9928614  53.2918614  52.8055060  58.1102101
  50.8076633  50.7835742  58.9172694  50.1634818  51.4945869  58.9503073
  53.0726633  49.2995742  60.2442694  52.6306633  48.1655742  60.0162694
  53.4076633  49.6135742  61.4942694  54.0596633  50.8565742  61.8892694
  53.3526908  51.6735063  61.7446592  54.9254595  51.0076172  61.2445355
  54.4506633  50.6705742  63.3572694  54.3543402  51.6126635  63.8969810
  55.4773841  50.3124759  63.4328425  53.4646633  49.6205742  63.8832694
  52.6025910  50.0675660  64.3783741  53.9827303  48.9624019  64.5807760
  53.0046633  48.8225742  62.6522694  53.5725533  47.8930615  62.6122034
  51.5146633  48.5045742  62.7212694  51.1636633  47.3475742  62.9562694
  50.6216633  49.4955742  62.5112694  50.9938471  50.4268004  62.3912846
  49.1806633  49.3245742  62.5052694  48.8748669  48.8667071  63.4459848
  48.4306633  50.6725742  62.3432694  48.6965864  51.0737000  61.3652703
  47.3634091  50.4523473  62.3671155  48.7666633  51.7155742  63.4372694
  47.9354861  52.4207056  63.4431933  48.8196366  51.2090781  64.4009886
  50.0756633  52.4715742  63.1852694  50.7946633  52.1405742  62.2032694
  50.3786633  53.3685742  64.0052694  48.6736633  48.3845742  61.4332694
  47.8056633  47.5495742  61.6902694  49.2066633  48.4695742  60.1992694
  49.8285282  49.2385427  59.9941577  48.8646633  47.5575742  59.1262694
  47.7794420  47.5128463  59.0346539  49.4576633  47.9975742  57.7672694
  50.4779474  48.3278994  57.9622175  49.4781388  47.1118948  57.1322475
  48.6816633  49.1215742  57.0552694  48.7837549  50.0152248  57.6709534
  49.1712792  49.2845804  56.0951615  46.9136633  48.7855742  56.7762694
  46.9196633  47.0155742  56.3562694  47.3346120  46.4457452  57.1876606
  45.8995042  46.6841201  56.1625830  47.5284754  46.8548031  55.4665494
  49.2696633  46.1235742  59.3842694  48.5196633  45.2015742  59.0772694
  50.4616633  45.8905742  59.9722694  51.1391439  46.6359218  60.0469438
  50.8526633  44.5625742  60.3962694  50.7260390  43.8666392  59.5669685
  52.3336633  44.5275742  60.8502694  52.8982268  44.8952781  59.9934374
  52.5156549  45.1737320  61.7090238  52.7736633  43.1235742  61.1762694
  52.5956633  42.0605742  60.2722694  52.1615202  42.2592572  59.2923998
  52.9706633  40.7555742  60.6212694  52.8008008  39.9308446  59.9291208
  53.5466633  40.5115742  61.8712694  54.0346633  39.2465742  62.2302694
  53.9278582  38.5923949  61.5358331  53.6676633  41.5435742  62.7962694
  54.0571710  41.3379929  63.7933253  53.2906633  42.8415742  62.4482694
  53.3966802  43.6518039  63.1696489  49.9266633  44.0005742  61.4772694
  49.4986633  42.8585742  61.3822694  49.5366633  44.8145742  62.4902694
  49.9799667  45.7146962  62.6058626  48.5876633  44.3765742  63.5052694
  48.9362294  43.4445177  63.9500969  48.4386633  45.4365742  64.6282694
  49.4489513  45.7203272  64.9230601  47.9369224  46.2944244  64.1805538
  47.6456633  44.9685742  65.8812694  47.7492440  45.7281031  66.6561809
  46.5914169  44.8439226  65.6340273  48.1806633  43.6425742  66.4222694
  49.3686633  43.5275742  66.7352694  47.3196633  42.6035742  66.5222694
  47.6441922  41.7150264  66.8761978  46.3563355  42.7212606  66.2425357
  47.2376633  43.9865742  62.9092694  46.7016633  42.9275742  63.2122694
  46.7336633  44.7765742  61.9352694  47.1938515  45.6604390  61.7706207
  45.5446633  44.4525742  61.1392694  44.7074131  44.3838972  61.8338159
  45.2256633  45.5225742  60.0932694  46.0609964  45.5708592  59.3947084
  43.9316633  45.2205742  59.3232694  43.0957524  45.1725929  60.0211594
  43.7500730  46.0094493  58.5933378  44.0294421  44.2650292  58.8080280
  45.0106633  46.7905742  60.6872694  44.8137564  47.4349974  60.0034955
  45.6436633  43.1135742  60.3972694  44.6796633  42.3545742  60.3222694
  46.8226633  42.7585742  59.8292694  47.5647240  43.4429116  59.7956925
  47.0686633  41.4405742  59.2472694  46.3227507  41.2566543  58.4740378
  48.4826633  41.3155742  58.6132694  49.1978279  41.5231016  59.4092412
  48.5872351  40.2790333  58.2927264  48.7556633  42.2495742  57.4232694
  48.1205744  41.9209955  56.6005915  48.4648556  43.2552587  57.7268014
  50.4936633  42.2695742  56.8682694  50.4326633  43.9655742  56.2152694
  50.1776009  44.6560398  57.0191969  51.4059800  44.2320609  55.8032744
  49.6777895  44.0267028  55.4313497  46.9476633  40.3145742  60.2682694
  46.3216633  39.2905742  60.0062694  47.5206633  40.5055742  61.4752694
  48.1209176  41.3115833  61.5759837  47.4006633  39.5895742  62.6002694
  47.7055412  38.5931562  62.2804261  48.2836633  40.0165742  63.7952694
  47.9111380  41.0129683  64.0330150  48.1085632  39.3522865  64.6415329
  49.7946633  40.0895742  63.5042694  49.9694896  40.7878817  62.6857933
  50.5486633  40.5685742  64.7562694  50.3746811  39.8704727  65.5750999
  51.6162189  40.6173027  64.5416740  50.1902164  41.5579028  65.0406024
  50.3766633  38.7595742  62.9922694  49.8760828  38.4757545  62.0665453
  51.4441896  38.8772336  62.8061378  50.2223971  37.9826673  63.7410795
  45.9686633  39.3965742  63.0872694  45.5486633  38.2635742  63.3192694
  45.1786633  40.4885742  63.1912694  45.6376882  41.3789391  63.0622510
  43.7646633  40.4845742  63.5242694  43.6056970  40.0070910  64.4911400
  43.2436633  41.9495742  63.6012694  43.4530598  42.4197507  62.6404435
  42.1655336  41.9012019  63.7542290  43.8806633  42.7735742  64.7212694
  44.6046633  42.2135742  65.5842694  43.6346633  44.0065742  64.7112694
  42.9306633  39.6755742  62.5182694  42.0916633  38.8485742  62.8772694
  43.2036633  39.8385742  61.2032694  43.8274051  40.5891419  60.9430896
  42.5936633  39.0495742  60.1432694  41.5104817  39.0638948  60.2641491
  42.9426633  39.6065742  58.7402694  44.0232189  39.6924409  58.6257021
  42.5464427  38.9516610  57.9642552  42.2656633  41.2615742  58.3982694
  42.7643122  41.3645802  57.1695964  42.9706633  37.5745742  60.2072694
  42.1986633  36.7045742  59.8072694  44.1546633  37.2465742  60.7582694
  44.7825137  37.9957807  61.0124206  44.6156633  35.8835742  60.9112694
  44.0274811  35.2388295  60.2582417  46.1026633  35.7205742  60.5532694
  46.7141049  36.3078826  61.2383294  46.3821210  34.6696292  60.6275534
  46.4646633  36.1635742  59.1682694  45.7386633  36.1015742  58.0162694
  44.7504339  35.6496509  58.1015213  46.4366633  36.6425742  56.9582694
  46.1321205  36.7294719  55.9992063  47.6636633  37.0625742  57.4562694
  48.7336633  37.6875742  56.8062694  48.6391698  37.9110571  55.7436194
  49.8736633  37.9895742  57.5762694  50.7347447  38.4659222  57.1075143
  49.9246633  37.6895742  58.9372694  50.8091745  37.9224905  59.5301347
  48.8386633  37.0785742  59.5852694  48.8843397  36.8858426  60.6571224
  47.7226633  36.7715742  58.8042694  44.3586633  35.3265742  62.2982694
  45.0566633  34.4165742  62.7712694  43.3216633  35.8185742  63.0092694
  42.9494929  36.7318261  62.7911880  42.8456633  35.1495742  64.2052694
  43.6934570  34.9689869  64.8661274  41.7916633  35.9785742  64.9702694
  41.9384259  37.0543757  64.8742948  40.8139661  35.7087332  64.5710274
  41.7526633  35.6825742  66.4282694  41.0946633  34.5545742  66.8852694
  40.6480121  33.8194477  66.3559382  41.1666633  34.6285742  68.1932694
  40.6868163  33.8277912  68.7559349  41.8506633  35.7295742  68.6122694
  42.2276633  36.4045742  67.4682694  42.7971686  37.3308180  67.5446719
  42.3856633  33.7145742  63.9172694  41.8336633  33.4185742  62.8482694
  42.6716633  32.7515742  64.8222694  43.1081034  32.9984648  65.6990045
  42.3666633  31.3445742  64.5722694  42.7665052  31.0775088  63.5940559
  42.8579934  30.7473775  65.3404167  40.8966633  31.0535742  64.5942694
  40.4206633  30.2495742  63.7952694  40.1436633  31.7485742  65.4592694
  40.6219963  32.3729878  66.0928344  38.7076633  31.6435742  65.5562694
  38.3871248  30.6196388  65.3641483  38.2616633  32.0425742  66.9892694
  38.6641831  31.2778139  67.6535124  38.7445602  32.9967992  67.1999002
  36.7366633  32.1745742  67.2192694  36.5908439  32.2243789  68.2983232
  36.3860517  33.1001502  66.7626735  35.9496633  31.0015742  66.6552694
  36.2676633  29.8395742  66.9982694  35.0326633  31.2915742  65.8382694
  38.1096633  32.5805742  64.4952694  38.4716633  33.7625742  64.4892694
  37.2536633  32.1715742  63.5562694  36.9836633  30.7635742  63.2802694
  36.2766935  30.3991545  64.0255830  37.9200540  30.2126816  63.3685231
  36.4156633  30.7225742  61.8642694  35.6610861  29.9409798  61.7758244
  37.2087561  30.5450689  61.1379107  35.8056633  32.1105742  61.6772694
  34.7791240  32.1482664  62.0418178  35.8313995  32.4212435  60.6327973
  36.6946633  33.0375742  62.5222694  37.5331150  33.4242880  61.9430031
  35.8726633  34.1925742  63.0512694  35.8106633  35.2275742  62.3712694
  35.2056633  34.0265742  64.2122694  35.2451447  33.1031842  64.6195672
  34.3446633  35.0265742  64.8432694  33.7737754  35.5263873  64.0607267
  33.3436633  34.4265742  65.8872694  32.5678696  35.1774265  66.0371505
  32.9076158  33.5420223  65.4230167  33.9136633  34.0695742  67.1532694
  33.2285842  33.7131047  67.7235290  35.0836633  36.1885742  65.4842694
  34.5186633  37.2645742  65.6462694  36.3786633  36.0125742  65.8272694
  36.8272251  35.1329442  65.6148015  37.1656633  37.0485742  66.4702694
  36.5123795  37.7487023  66.9909805  38.1286633  36.4085742  67.5022694
  38.6141816  35.5731210  66.9978994  38.8724567  37.1673165  67.7455418
  37.4586633  35.9055742  68.8062694  36.5923411  35.2893159  68.5658272
  38.1992265  35.3016476  69.3306174  37.0106633  37.0395742  69.7292694
  35.8366633  37.2105742  70.0442694  37.9856633  37.8375742  70.2252694
  37.7445296  38.6017748  70.8400486  38.9496614  37.6650096  69.9782262
  38.0226633  37.8175742  65.4792694  38.6996633  38.7765742  65.8442694
  38.0186633  37.4285742  64.1882694  37.6164353  36.5342945  63.9462449
  38.5426633  38.2595742  63.1192694  39.5552284  38.5767758  63.3686571
  38.5826633  37.4845742  61.7762694  37.5617603  37.1630301  61.5701969
  38.8998148  38.1961164  61.0138898  39.5186633  36.2625742  61.7582694
  40.5451480  36.6289851  61.7714175  39.3283912  35.6838799  62.6621563
  39.3096633  35.3695742  60.5252694  38.2505422  35.1786828  60.3522893
  39.7474434  35.8197035  59.6342971  39.9986633  34.0585742  60.7912694
  40.8006905  34.0692944  61.4050582  39.6506633  32.8955742  60.2092694
  38.7606633  32.8565742  59.2322694  38.3296750  33.7118105  58.9114580
  38.5159001  31.9717267  58.8112758  40.1486633  31.7495742  60.6572694
  40.7904239  31.7519329  61.4371654  39.8835295  30.8805250  60.2161841
  37.6296633  39.4695742  62.9232694  36.4246633  39.3025742  63.1192694
  38.0776633  40.6625742  62.5412694  39.4676633  40.9475742  62.1952694
  39.8687560  40.0887015  61.6571592  40.0275242  41.0904009  63.1195287
  39.4276633  42.2125742  61.3362694  39.4048819  41.9579454  60.2766731
  40.2933359  42.8430157  61.5393845  38.1326633  42.9045742  61.7732694
  37.6934571  43.4791652  60.9577683  38.3045429  43.5597446  62.6272652
  37.1876633  41.7575742  62.1732694  36.6171831  42.0209188  63.0639435
  36.2336633  41.4275742  61.0422694  36.5046633  40.5325742  60.2302694
  35.1116633  42.1505742  60.9442694  34.7820899  42.6369053  61.7658306
  34.2716633  42.1565742  59.7552694  34.2989670  41.1343582  59.3778729
  32.8046633  42.5645742  59.9622694  32.2297228  42.3373907  59.0645326
  32.2316633  41.7835742  61.1452694  32.8058408  42.0106157  62.0435299
  31.1905504  42.0675367  61.2987243  32.2895314  40.7150071  60.9381074
  32.5866633  43.9305742  60.2832694  31.6458965  44.0873633  60.3927021
  34.8936633  42.9955742  58.6592694  35.8006633  43.8005742  58.8902694
  34.4306633  42.8655742  57.3962694  33.9166373  42.0401775  57.1231450
  34.7996633  43.8205742  56.3642694  35.8851623  43.9187491  56.3519137
  34.3276633  43.3935742  54.9602694  33.3169361  42.9859746  54.9800801
  34.3784752  44.2023824  54.2313336  35.2206633  42.3015742  54.4522694
  36.5556633  42.5965742  54.1462694  36.9273435  43.6082916  54.3086936
  37.4066633  41.6135742  53.6392694  38.4406599  41.8605799  53.3985623
  36.9346633  40.3145742  53.4402694  37.5928210  39.5467302  53.0336443
  35.6106633  40.0005742  53.7652694  35.2445471  38.9824461  53.6330788
  34.7556633  40.9935742  54.2602694  33.7200869  40.7515714  54.4992591
  34.3696633  45.2515742  56.6832694  35.1366633  46.1755742  56.4622694
  33.1766633  45.4435742  57.2962694  32.5946455  44.6286008  57.4273153
  32.6986633  46.7225742  57.8042694  32.5384050  47.4144339  56.9773796
  31.3446633  46.5305742  58.5652694  31.5873932  45.9095285  59.4275244
  31.0636655  47.5277802  58.9039736  30.2496633  45.9435742  57.8462694
  29.4844518  45.8824276  58.4227347  33.6526633  47.3695742  58.8112694
  34.0236633  48.5325742  58.6852694  34.1486633  46.6095742  59.8132694
  33.7688766  45.6822690  59.9396284  35.1456633  47.0825742  60.7632694
  34.8296209  48.0284219  61.2032563  35.3136633  46.0485742  61.8892694
  35.5435230  45.0861803  61.4320367  36.1500815  46.3626106  62.5136776
  34.0406633  45.9145742  62.7612694  34.0919116  46.7510386  63.4582641
  33.1409733  46.0041937  62.1524793  33.9976633  44.6055742  63.5412694
  34.7476633  43.6685742  63.1642694  33.1636633  44.5065742  64.4712694
  36.4966633  47.3865742  60.1142694  37.1636633  48.3735742  60.4242694
  36.9206633  46.5525742  59.1362694  36.4337830  45.6759141  59.0157956
  38.0916633  46.8105742  58.3112694  38.9548937  46.9688727  58.9577012
  38.3986633  45.6295742  57.3552694  37.4225771  45.3696107  56.9456672
  39.0614928  45.9367069  56.5463031  38.9966633  44.4055742  58.0712694
  38.4364157  44.2340806  58.9904068  38.9276633  43.1505742  57.1882694
  39.4881106  43.3211522  56.2690846  39.3582255  42.3046045  57.7240420
  37.8876202  42.9341407  56.9442051  40.4386633  44.6715742  58.5452694
  40.4442676  45.5117514  59.2396543  40.8265586  43.7844763  59.0459647
  41.0665636  44.9069092  57.6859339  38.0086633  48.0955742  57.4972694
  38.9796633  48.8485742  57.4472694  36.8496633  48.4115742  56.8772694
  36.1141299  47.7194582  56.8853614  36.6106633  49.6695742  56.1692694
  37.3427714  49.8022175  55.3727002  35.2106633  49.7145742  55.5582694
  34.5095988  49.3804324  56.3230943  34.7986633  51.1215742  55.0602694
  35.4990462  51.4562167  54.2950380  33.7942486  51.0787791  54.6390566
  34.8122464  51.8216299  55.8956370  35.1496633  48.7335742  54.3782694
  35.3642555  47.7251456  54.7319980  34.1539778  48.7585313  53.9354519
  35.8874032  49.0197808  53.6286520  36.7766633  50.8725742  57.0802694
  37.4956633  51.8185742  56.7492694  36.1586633  50.8395742  58.2782694
  35.5573982  50.0554249  58.4872899  36.2806633  51.8955742  59.2662694
  35.9771260  52.8511044  58.8385704  35.3676633  51.5815742  60.4682694
  34.3654242  51.4214971  60.0707879  35.7346838  50.6554937  60.9107294
  35.3226633  52.6875742  61.5502694  36.3394376  52.8523816  61.9067932
  34.9544193  53.5950489  61.0717454  34.4196633  52.3325742  62.7322694
  33.8196633  51.2295742  62.7372694  34.3416633  53.1875742  63.6502694
  37.7016633  52.1045742  59.7692694  38.2316633  53.2125742  59.7792694
  38.3926633  51.0045742  60.1352694  37.9150633  50.1150305  60.1619076
  39.7766633  51.0545742  60.5632694  39.8982589  51.7626649  61.3829774
  40.2006633  49.6565742  61.0532694  39.5636308  49.3350982  61.8772488
  40.1270297  48.9387389  60.2363296  41.6016633  49.5945742  61.5492694
  42.0166633  50.5015742  62.5022694  41.4955130  51.2441984  62.9461291
  43.2736633  50.1985742  62.7292694  43.8009545  50.8077360  63.4634252
  43.6916633  49.1465742  61.9792694  42.6126633  48.7615742  61.2142694
  42.7078746  47.9285015  60.5178314  40.7436633  51.5485742  59.4892694
  41.5486633  52.4525742  59.7262694  40.6646633  51.0315742  58.2482694
  40.0594314  50.2370232  58.0983280  41.5166633  51.4675742  57.1502694
  42.5519329  51.4912487  57.4904979  41.4186633  50.5215742  55.9322694
  40.3515415  50.4667863  55.7169817  41.9396501  50.9522951  55.0771950
  41.9626633  49.1005742  56.2042694  41.5215718  48.7194024  57.1252728
  41.6066633  48.1665742  55.0432694  42.0478247  48.5468695  54.1219383
  41.9952928  47.1687390  55.2467215  40.5232206  48.1186379  54.9339328
  43.4766633  49.0925742  56.4562694  43.7043806  49.7118030  57.3239099
  43.8092021  48.0713014  56.6420679  43.9931295  49.4889294  55.5820474
  41.2766633  52.9165742  56.7552694  42.2156633  53.6575742  56.4822694
  40.0026633  53.3725742  56.7772694  39.2519986  52.7093429  56.9065990
  39.6606633  54.7835742  56.6222694  39.9764932  55.0815848  55.6224993
  38.5760101  54.8602847  56.6980485  40.2936633  55.7155742  57.6382694
  40.7506633  56.8005742  57.2862694  40.3716633  55.2945742  58.9182694
  39.8505239  54.4625005  59.1552640  41.0976633  55.9825742  59.9812694
  40.7910722  57.0282833  60.0056354  40.8176633  55.3525742  61.3672694
  40.9818649  54.2773737  61.2959884  41.4681587  55.7687253  62.1365379
  39.3666633  55.5985742  61.7702694  38.6896633  56.4775742  61.2432694
  38.8836633  54.8205742  62.7692694  37.9296439  54.9371177  63.0796957
  39.4798924  54.1277131  63.1988682  42.6096633  56.0205742  59.7722694
  43.2596633  57.0325742  59.9952694  43.2166633  54.9015742  59.3202694
  42.6822735  54.0461768  59.2671439  44.6356633  54.8515742  58.9902694
  45.2036692  55.2606273  59.8258196  45.1316633  53.4155742  58.7122694
  44.5122293  53.0966147  57.8740179  46.1766286  53.4387071  58.4030570
  44.9636633  52.4235742  59.8822694  43.9047038  52.3160990  60.1171200
  45.5416633  51.0555742  59.4862694  46.6007745  51.1621691  59.2517064
  45.4219393  50.3565802  60.3140220  45.0127655  50.6764343  58.6118435
  45.5896633  52.9215742  61.1952694  45.1190052  53.8595121  61.4899777
  45.4361985  52.1773775  61.9767558  46.6582210  53.0813938  61.0512521
  45.0256633  55.7355742  57.8162694  46.1056633  56.3115742  57.7902694
  44.1246633  55.8635742  56.8212694  43.3559139  55.2084992  56.8206085
  44.2446633  56.7835742  55.7072694  45.2069507  56.6659878  55.2089968
  43.1186633  56.4685742  54.6902694  42.9219446  55.4071035  54.8408718
  42.2485876  57.0465733  55.0016943  43.4036633  56.7325742  53.1922694
  43.2603411  57.8001677  53.0255248  44.8156633  56.3255742  52.7282694
  44.9595714  55.2579464  52.8942819  44.9274269  56.5459810  51.6666525
  45.5601653  56.8845016  53.2952062  42.3576633  55.9605742  52.3662694
  41.3585067  56.3098768  52.6266023  42.5358255  56.1295164  51.3042816
  42.4373747  54.8952261  52.5825526  44.2586633  58.2615742  56.1182694
  44.9936633  59.0515742  55.5632694  43.4346633  58.6325742  57.1292694
  42.8062202  57.9212089  57.4744044  43.4256633  59.9505742  57.7862694
  43.3400313  60.7424605  57.0421710  42.2186633  60.0425742  58.7462694
  42.2812511  59.1811484  59.4111961  42.3477603  60.9574396  59.3245905
  40.8446633  60.0605742  58.0602694  40.6956616  61.0215958  57.5679922
  40.7494245  59.2590633  57.3277314  39.7596633  59.8825742  59.1232694
  39.7716633  60.5155742  60.1762694  38.7986633  58.9685742  58.8532694
  38.0565249  58.8088030  59.5194565  38.8279988  58.4504066  57.9868151
  44.6206633  60.2545742  58.6652694  44.9466633  61.4635742  58.8752694
  45.2136633  59.2735742  59.3252694  44.7255541  58.3893981  59.3342959
  46.4376633  59.3895742  60.0892694  46.3428897  60.3013710  60.6789674
  46.5656633  58.1905742  61.0522694  46.6705140  57.2710221  60.4764828
  47.4429038  58.3243230  61.6852469  45.6741123  58.1282690  61.6762519
  47.7056633  59.5165742  59.2402694  48.6806633  60.1335742  59.6882694
  47.7196633  58.9095742  58.0422694  46.9977469  58.2167664  57.9045980
  48.6896633  59.1115742  56.9832694  49.7124559  59.0869490  57.3592854
  48.4976633  57.9315742  55.9862694  48.5215239  56.9752742  56.5087828
  47.5102634  58.0819865  55.5497860  49.5236633  57.8985742  54.8662694
  50.5316633  57.1695742  54.8992694  49.2486633  58.6535742  53.7872694
  49.8935821  58.6723537  53.0102064  48.3985364  59.1981803  53.7591745
  48.5346633  60.5035742  56.2862694  47.5116633  61.1925742  56.5152694
  49.4646633  60.8805742  55.5242694  40.3876633  42.2915742  33.0712694
  40.9856633  42.8325742  33.8022694  39.6876633  42.9825742  32.6012694
  41.0506633  41.8725742  32.3122694  39.6136633  41.1665742  33.7612694
  38.8646633  41.5845742  34.4342694  40.3046633  40.5145742  34.2942694
  38.9756633  40.4535742  32.6902694  37.9156633  39.6155742  32.7402694
  37.3816633  39.3675742  31.6742694  37.3866633  39.1135742  33.9892694
  38.1766633  38.6955742  35.0722694  37.5756633  38.2585742  36.2452694
  38.1766633  37.9325742  37.0512694  39.2326633  38.6955742  34.9942694
  35.9986633  39.0515742  34.1022694  35.3836633  39.2965742  33.2762694
  35.4016633  38.7055742  35.2882694  34.3536633  38.7605742  35.3532694
  36.1796633  38.2545742  36.3492694  35.5556633  37.6865742  37.4812694
  36.0926633  36.9685742  37.9902694  34.2456633  37.8385742  37.8652694
  33.6166633  38.8115742  37.4992694  33.6646633  36.7765742  38.7902694
  34.3296633  35.9285742  38.8332694  32.6976633  36.5025742  38.3922694
  33.4446633  37.3175742  40.1532694  33.7196633  38.5935742  40.6012694
  34.5016633  39.3655742  40.0842694  32.7236633  36.6315742  41.1522694
  32.3556633  35.2875742  41.1802694  32.5946633  34.6395742  40.3772694
  31.6746633  34.8175742  42.3012694  31.3846633  33.7985742  42.3542694
  31.3716633  35.6795742  43.3622694  30.8556633  35.3075742  44.2102694
  31.7426633  37.0255742  43.3092694  31.5056633  37.6775742  44.1092694
  32.4196633  37.4965742  42.1922694  32.8946633  38.8775742  41.8392694
  31.8276633  39.7435742  41.5132694  32.2396633  41.1095742  41.6672694
  32.4456633  41.5555742  40.6922694  31.4776633  41.6775742  42.1982694
  33.5416633  41.0035742  42.4972694  33.4786633  41.6215742  43.3892694
  34.3946633  41.3055742  41.8902694  33.6316633  39.5915742  42.8082694
  54.2637250  78.8881280  68.9055360  51.2574730  52.3954480  70.4786140
  27.1915790   2.7716140  53.1709100  71.8041090  80.2759280  80.5765290
  70.9725970  80.0207990  80.9761800  72.4122070  80.3470050  81.3123210
  70.2133040  75.2361170  74.3607680  69.3249740  75.5777140  74.2587560
  70.4974230  75.0361490  73.4688510  68.1766050  77.8366820  80.2447380
  68.7482160  77.0689020  80.2451020  68.1767590  78.1355580  79.3353990
  72.3894430  73.8192670  75.3946060  72.4961180  74.7196400  75.7014820
  71.4786790  73.7710640  75.1040710  70.0377590  75.7411680  80.6398650
  70.7187700  76.0050050  81.2586050  69.7225640  74.9012550  80.9736660
  74.2302160  76.7879040  79.7271240  74.7380380  77.2860010  80.3676260
  74.7615400  76.0114240  79.5510600  75.8781480  70.6269830  78.3249700
  76.1856460  70.0716720  77.6085200  74.9482180  70.7614290  78.1422690
  73.8718880  79.2183400  77.8429550  73.4675880  78.5060650  77.3475450
  73.9582000  78.8736640  78.7317590  70.5723510  78.1128380  75.3436200
  70.4521110  78.8390470  74.7317470  70.2624400  77.3431290  74.8664110
  73.0387170  71.4563450  78.7259870  72.5955320  72.2372990  78.3944390
  73.5972160  71.7793340  79.4330810  76.1545990  71.0774150  73.6065700
  75.5300170  71.0734020  74.3319010  76.0676110  70.2105110  73.2101670
  75.0763070  72.0010780  80.5849470  75.3735400  72.9073610  80.5041490
  75.6248630  71.5129560  79.9709040  72.8301390  76.5797020  76.4541120
  72.6042310  76.3634190  77.3587740  72.0493920  77.0125480  76.1087090
  67.7028190  71.8124730  79.3065250  67.4141240  72.3827590  80.0190230
  68.4473950  71.3329180  79.6696480  67.8898420  75.7544850  70.5167970
  67.8073090  76.6975610  70.6582960  67.5381480  75.6119760  69.6380320
  75.6896550  74.4883880  79.5838320  75.6932610  74.0473830  78.7342860
  76.5847670  74.8101210  79.6910140  71.5398930  74.3710370  78.5432530
  71.1998980  74.8485600  79.2999580  70.7776250  73.9175490  78.1833630
  75.7516700  75.4895960  72.5745080  75.8729520  75.4482440  73.5230900
  75.3665210  76.3520110  72.4191810  74.7638200  77.7997100  71.9728380
  74.1955100  77.3515350  71.3464290  75.4727200  78.1589880  71.4393530
  68.8545010  73.2929350  77.4597200  68.5691930  72.9285020  78.2975820
  68.7923870  72.5609810  76.8460340  68.3475670  78.4288300  71.4193900
  69.2170520  78.7113100  71.7029820  67.8565990  79.2424170  71.3042710
  75.5110480  79.8161510  75.5402180  75.9673260  80.6266760  75.7662370
  75.1598690  79.4984650  76.3720670  71.4122260  70.1599160  76.0124700
  71.2836890  70.1517060  76.9609620  70.5884280  70.4982250  75.6615710
  70.3322180  80.2461770  73.5475960  69.7250130  80.9860670  73.5571260
  70.8071530  80.3361130  72.7214160  75.2401030  75.6455480  75.4478290
  74.5317180  76.1141820  75.8891900  75.5245510  74.9877490  76.0823480
  73.4436050  73.9540560  72.8229000  74.2926580  74.3910710  72.7569190
  73.0767320  74.2660820  73.6501060  72.3427470  80.2072920  71.2964530
  73.1090740  80.0954280  71.8589960  72.4202160  79.5110890  70.6441300
  71.0374230  77.6397990  71.9797420  71.1177820  76.6925500  72.0914820
  71.9293980  77.9704870  72.0858080  74.3746500  80.2038050  73.2707170
  74.7962920  80.0377920  74.1138560  74.4997340  79.3938280  72.7762310
  73.2705400  76.2771280  70.2165330  73.0694460  75.4138640  70.5778670
  73.0997450  76.1904640  69.2786930  72.0688200  73.3771900  70.2043210
  72.3714100  73.3839330  69.2962360  72.8082790  73.0269760  70.7010870
  75.2873130  72.3206520  71.1899410  74.9395130  71.6430510  70.6101860
  75.4885900  71.8596030  72.0042800  68.6278770  78.8494170  77.5863780
  67.9727610  78.5805810  76.9423480  69.4656720  78.7398650  77.1365760
  67.8416850  76.0593100  73.5289110  66.9380930  76.3223300  73.3540770
  68.3257470  76.3304270  72.7489070  70.3844060  75.1158640  71.4383490
  71.0935760  74.6941860  70.9530770  69.6684000  75.1833870  70.8066840
  70.0318220  71.1697970  70.4786140  70.7546350  71.7106910  70.7967360
  70.3042740  70.8961390  69.6027680  69.7210410  70.4204160  80.3808760
  70.3686600  69.8701540  79.9403920  70.1412250  70.6747310  81.2024570
  69.4565060  71.2091230  74.0721710  70.2144420  71.3220110  73.4985740
  68.9942230  72.0460430  74.0265140  75.9978870  73.3230500  77.0624020
  75.1853380  72.9487390  76.7219900  76.5020510  72.5675580  77.3645210
  71.8290210  71.7355280  72.6123680  72.3582970  70.9485080  72.4831630
  72.4618530  72.4146470  72.8459210  74.0228050  71.4730420  75.6669070
  73.3930790  70.7717730  75.8339200  73.4833190  72.2334550  75.4502230
  71.8041090  80.2759280  61.8021800  70.9725970  80.0207990  62.2018310
  72.4122070  80.3470050  62.5379720  70.2133040  75.2361170  55.5864190
  69.3249740  75.5777140  55.4844070  70.4974230  75.0361490  54.6945020
  68.1766050  77.8366820  61.4703890  68.7482160  77.0689020  61.4707530
  68.1767590  78.1355580  60.5610500  69.4190920  73.2451180  63.2572820
  69.2393760  72.3476930  63.5375580  69.0171000  73.7923050  63.9319770
  72.3894430  73.8192670  56.6202570  72.4961180  74.7196400  56.9271330
  71.4786790  73.7710640  56.3297220  70.0377590  75.7411680  61.8655160
  70.7187700  76.0050050  62.4842560  69.7225640  74.9012550  62.1993170
  74.2302160  76.7879040  60.9527750  74.7380380  77.2860010  61.5932770
  74.7615400  76.0114240  60.7767110  72.5138260  71.4277600  65.2191170
  72.5156700  71.9449990  64.4137070  71.6842570  70.9507780  65.1961100
  72.1953590  73.1387560  63.2261620  72.5370400  73.9829610  62.9315490
  71.2569400  73.2871300  63.3426960  75.8781480  70.6269830  59.5506210
  76.1856460  70.0716720  58.8341710  74.9482180  70.7614290  59.3679200
  73.8718880  79.2183400  59.0686060  73.4675880  78.5060650  58.5731960
  73.9582000  78.8736640  59.9574100  72.5847500  75.9926610  62.8485100
  73.1362090  76.1021950  62.0738350  73.0991010  76.3664210  63.5640330
  72.2590230  79.5145970  66.4590440  72.1198000  80.3868770  66.8277840
  71.3771590  79.1718780  66.3138380  70.5723510  78.1128380  56.5692710
  70.4521110  78.8390470  55.9573980  70.2624400  77.3431290  56.0920620
  73.0387170  71.4563450  59.9516380  72.5955320  72.2372990  59.6200900
  73.5972160  71.7793340  60.6587320  76.1545990  71.0774150  54.8322210
  75.5300170  71.0734020  55.5575520  76.0676110  70.2105110  54.4358180
  75.0763070  72.0010780  61.8105980  75.3735400  72.9073610  61.7298000
  75.6248630  71.5129560  61.1965550  72.8301390  76.5797020  57.6797630
  72.6042310  76.3634190  58.5844250  72.0493920  77.0125480  57.3343600
  75.2700600  77.4782600  68.3457900  75.1744200  76.5377330  68.1958300
  76.1132580  77.6997670  67.9505970  70.4011140  73.8896270  66.4991680
  70.0074530  74.7371480  66.7064460  69.7129540  73.2522640  66.6900320
  67.7028190  71.8124730  60.5321760  67.4141240  72.3827590  61.2446740
  68.4473950  71.3329180  60.8952990  67.8898420  75.7544850  51.7424480
  67.8073090  76.6975610  51.8839470  67.5381480  75.6119760  50.8636830
  75.6896550  74.4883880  60.8094830  75.6932610  74.0473830  59.9599370
  76.5847670  74.8101210  60.9166650  71.5398930  74.3710370  59.7689040
  71.1998980  74.8485600  60.5256090  70.7776250  73.9175490  59.4090140
  75.7516700  75.4895960  53.8001590  75.8729520  75.4482440  54.7487410
  75.3665210  76.3520110  53.6448320  74.7638200  77.7997100  53.1984890
  74.1955100  77.3515350  52.5720800  75.4727200  78.1589880  52.6650040
  75.9904520  78.5485660  62.5560240  76.3574650  78.0744230  63.3021580
  75.8009580  79.4227230  62.8968580  68.8545010  73.2929350  58.6853710
  68.5691930  72.9285020  59.5232330  68.7923870  72.5609810  58.0716850
  73.7803890  77.5894300  64.8744450  73.4760960  78.4686280  65.0994810
  74.7350350  77.6494090  64.9101890  69.8367620  78.4297040  66.0215810
  69.4782560  79.0950890  66.6089150  69.5422180  77.5980590  66.3928430
  73.0380740  78.8881280  68.9055360  72.7380880  79.0338460  68.0083180
  73.8091980  78.3286570  68.8128750  68.3475670  78.4288300  52.6450410
  69.2170520  78.7113100  52.9286330  67.8565990  79.2424170  52.5299220
  75.5110480  79.8161510  56.7658690  75.9673260  80.6266760  56.9918880
  75.1598690  79.4984650  57.5977180  71.4122260  70.1599160  57.2381210
  71.2836890  70.1517060  58.1866130  70.5884280  70.4982250  56.8872220
  68.4116190  71.9190280  66.6987910  67.6974710  72.1187200  67.3040520
  68.8311230  71.1429850  67.0702710  70.3322180  80.2461770  54.7732470
  69.7250130  80.9860670  54.7827770  70.8071530  80.3361130  53.9470670
  75.2401030  75.6455480  56.6734800  74.5317180  76.1141820  57.1148410
  75.5245510  74.9877490  57.3079990  73.4436050  73.9540560  54.0485510
  74.2926580  74.3910710  53.9825700  73.0767320  74.2660820  54.8757570
  72.3427470  80.2072920  52.5221040  73.1090740  80.0954280  53.0846470
  72.4202160  79.5110890  51.8697810  71.0374230  77.6397990  53.2053930
  71.1177820  76.6925500  53.3171330  71.9293980  77.9704870  53.3114590
  68.5645030  79.4612910  68.4410100  69.0684050  78.8820190  69.0126330
  67.8252450  79.7453140  68.9786470  70.5968110  77.6042500  69.3360170
  70.6373450  77.3056370  70.2445400  71.4513610  78.0050110  69.1767690
  74.3746500  80.2038050  54.4963680  74.7962920  80.0377920  55.3395070
  74.4997340  79.3938280  54.0018820  72.5373920  76.1834600  67.3034660
  72.0070380  75.6925550  66.6758000  73.2061990  76.6118800  66.7692590
  73.0246220  73.1496970  67.3831950  72.9303090  72.5317720  66.6582820
  72.4443610  73.8763260  67.1561860  75.7907660  71.7070210  64.4159340
  75.3424960  71.7294470  63.5704890  75.1572860  71.3089230  65.0129640
  73.2705400  76.2771280  51.4421840  73.0694460  75.4138640  51.8035180
  73.0997450  76.1904640  50.5043440  75.2999880  74.8762070  67.6785440
  75.8899570  74.5677920  68.3663260  74.4820120  74.4041820  67.8345340
  72.0688200  73.3771900  51.4299720  72.3714100  73.3839330  50.5218870
  72.8082790  73.0269760  51.9267380  75.2873130  72.3206520  52.4155920
  74.9395130  71.6430510  51.8358370  75.4885900  71.8596030  53.2299310
  68.6278770  78.8494170  58.8120290  67.9727610  78.5805810  58.1679990
  69.4656720  78.7398650  58.3622270  69.6654700  79.2346740  63.3523630
  70.0327740  79.1474140  64.2319650  69.0965520  78.4713290  63.2530490
  69.2170700  76.1455830  67.2582050  68.3226750  76.1122590  67.5975760
  69.7568250  76.3442620  68.0233300  67.8416850  76.0593100  54.7545620
  66.9380930  76.3223300  54.5797280  68.3257470  76.3304270  53.9745580
  70.3844060  75.1158640  52.6640000  71.0935760  74.6941860  52.1787280
  69.6684000  75.1833870  52.0323350  70.0318220  71.1697970  51.7042650
  70.7546350  71.7106910  52.0223870  70.3042740  70.8961390  50.8284190
  69.7210410  70.4204160  61.6065270  70.3686600  69.8701540  61.1660430
  70.1412250  70.6747310  62.4281080  69.4742410  70.5759830  64.3490590
  69.1257230  71.0323650  65.1148770  69.1430110  69.6816960  64.4313020
  70.1463050  70.1036030  67.6241360  70.6946040  69.9224080  66.8607470
  70.2118360  69.3130140  68.1597670  69.4565060  71.2091230  55.2978220
  70.2144420  71.3220110  54.7242250  68.9942230  72.0460430  55.2521650
  75.9978870  73.3230500  58.2880530  75.1853380  72.9487390  57.9476410
  76.5020510  72.5675580  58.5901720  71.8290210  71.7355280  53.8380190
  72.3582970  70.9485080  53.7088140  72.4618530  72.4146470  54.0715720
  74.0228050  71.4730420  56.8925580  73.3930790  70.7717730  57.0595710
  73.4833190  72.2334550  56.6758740  74.1483610  70.7514400  69.3278070
  73.8667880  71.2548000  68.5638890  74.5303310  69.9536150  68.9620200
  71.8041090  80.2759280  43.0278310  70.9725970  80.0207990  43.4274820
  72.4122070  80.3470050  43.7636230  70.2133040  75.2361170  36.8120700
  69.3249740  75.5777140  36.7100580  70.4974230  75.0361490  35.9201530
  68.1766050  77.8366820  42.6960400  68.7482160  77.0689020  42.6964040
  68.1767590  78.1355580  41.7867010  69.4190920  73.2451180  44.4829330
  69.2393760  72.3476930  44.7632090  69.0171000  73.7923050  45.1576280
  72.3894430  73.8192670  37.8459080  72.4961180  74.7196400  38.1527840
  71.4786790  73.7710640  37.5553730  70.0377590  75.7411680  43.0911670
  70.7187700  76.0050050  43.7099070  69.7225640  74.9012550  43.4249680
  74.2302160  76.7879040  42.1784260  74.7380380  77.2860010  42.8189280
  74.7615400  76.0114240  42.0023620  72.5138260  71.4277600  46.4447680
  72.5156700  71.9449990  45.6393580  71.6842570  70.9507780  46.4217610
  72.1953590  73.1387560  44.4518130  72.5370400  73.9829610  44.1572000
  71.2569400  73.2871300  44.5683470  75.8781480  70.6269830  40.7762720
  76.1856460  70.0716720  40.0598220  74.9482180  70.7614290  40.5935710
  73.8718880  79.2183400  40.2942570  73.4675880  78.5060650  39.7988470
  73.9582000  78.8736640  41.1830610  72.5847500  75.9926610  44.0741610
  73.1362090  76.1021950  43.2994860  73.0991010  76.3664210  44.7896840
  72.2590230  79.5145970  47.6846950  72.1198000  80.3868770  48.0534350
  71.3771590  79.1718780  47.5394890  70.5723510  78.1128380  37.7949220
  70.4521110  78.8390470  37.1830490  70.2624400  77.3431290  37.3177130
  73.0387170  71.4563450  41.1772890  72.5955320  72.2372990  40.8457410
  73.5972160  71.7793340  41.8843830  76.1545990  71.0774150  36.0578720
  75.5300170  71.0734020  36.7832030  76.0676110  70.2105110  35.6614690
  75.0763070  72.0010780  43.0362490  75.3735400  72.9073610  42.9554510
  75.6248630  71.5129560  42.4222060  72.8301390  76.5797020  38.9054140
  72.6042310  76.3634190  39.8100760  72.0493920  77.0125480  38.5600110
  75.2700600  77.4782600  49.5714410  75.1744200  76.5377330  49.4214810
  76.1132580  77.6997670  49.1762480  70.4011140  73.8896270  47.7248190
  70.0074530  74.7371480  47.9320970  69.7129540  73.2522640  47.9156830
  67.7028190  71.8124730  41.7578270  67.4141240  72.3827590  42.4703250
  68.4473950  71.3329180  42.1209500  67.8898420  75.7544850  32.9680990
  67.8073090  76.6975610  33.1095980  67.5381480  75.6119760  32.0893340
  75.6896550  74.4883880  42.0351340  75.6932610  74.0473830  41.1855880
  76.5847670  74.8101210  42.1423160  71.5398930  74.3710370  40.9945550
  71.1998980  74.8485600  41.7512600  70.7776250  73.9175490  40.6346650
  75.7516700  75.4895960  35.0258100  75.8729520  75.4482440  35.9743920
  75.3665210  76.3520110  34.8704830  74.7638200  77.7997100  34.4241400
  74.1955100  77.3515350  33.7977310  75.4727200  78.1589880  33.8906550
  75.9904520  78.5485660  43.7816750  76.3574650  78.0744230  44.5278090
  75.8009580  79.4227230  44.1225090  68.8545010  73.2929350  39.9110220
  68.5691930  72.9285020  40.7488840  68.7923870  72.5609810  39.2973360
  73.7803890  77.5894300  46.1000960  73.4760960  78.4686280  46.3251320
  74.7350350  77.6494090  46.1358400  69.8367620  78.4297040  47.2472320
  69.4782560  79.0950890  47.8345660  69.5422180  77.5980590  47.6184940
  73.0380740  78.8881280  50.1311870  72.7380880  79.0338460  49.2339690
  73.8091980  78.3286570  50.0385260  68.3475670  78.4288300  33.8706920
  69.2170520  78.7113100  34.1542840  67.8565990  79.2424170  33.7555730
  75.5110480  79.8161510  37.9915200  75.9673260  80.6266760  38.2175390
  75.1598690  79.4984650  38.8233690  71.4122260  70.1599160  38.4637720
  71.2836890  70.1517060  39.4122640  70.5884280  70.4982250  38.1128730
  68.4116190  71.9190280  47.9244420  67.6974710  72.1187200  48.5297030
  68.8311230  71.1429850  48.2959220  70.3322180  80.2461770  35.9988980
  69.7250130  80.9860670  36.0084280  70.8071530  80.3361130  35.1727180
  75.2401030  75.6455480  37.8991310  74.5317180  76.1141820  38.3404920
  75.5245510  74.9877490  38.5336500  73.4436050  73.9540560  35.2742020
  74.2926580  74.3910710  35.2082210  73.0767320  74.2660820  36.1014080
  72.3427470  80.2072920  33.7477550  73.1090740  80.0954280  34.3102980
  72.4202160  79.5110890  33.0954320  71.0374230  77.6397990  34.4310440
  71.1177820  76.6925500  34.5427840  71.9293980  77.9704870  34.5371100
  68.5645030  79.4612910  49.6666610  69.0684050  78.8820190  50.2382840
  67.8252450  79.7453140  50.2042980  70.5968110  77.6042500  50.5616680
  70.6373450  77.3056370  51.4701910  71.4513610  78.0050110  50.4024200
  74.3746500  80.2038050  35.7220190  74.7962920  80.0377920  36.5651580
  74.4997340  79.3938280  35.2275330  72.5373920  76.1834600  48.5291170
  72.0070380  75.6925550  47.9014510  73.2061990  76.6118800  47.9949100
  73.0246220  73.1496970  48.6088460  72.9303090  72.5317720  47.8839330
  72.4443610  73.8763260  48.3818370  75.7907660  71.7070210  45.6415850
  75.3424960  71.7294470  44.7961400  75.1572860  71.3089230  46.2386150
  73.2705400  76.2771280  32.6678350  73.0694460  75.4138640  33.0291690
  73.0997450  76.1904640  31.7299950  75.2999880  74.8762070  48.9041950
  75.8899570  74.5677920  49.5919770  74.4820120  74.4041820  49.0601850
  72.0688200  73.3771900  32.6556230  72.3714100  73.3839330  31.7475380
  72.8082790  73.0269760  33.1523890  75.2873130  72.3206520  33.6412430
  74.9395130  71.6430510  33.0614880  75.4885900  71.8596030  34.4555820
  68.6278770  78.8494170  40.0376800  67.9727610  78.5805810  39.3936500
  69.4656720  78.7398650  39.5878780  69.6654700  79.2346740  44.5780140
  70.0327740  79.1474140  45.4576160  69.0965520  78.4713290  44.4787000
  69.2170700  76.1455830  48.4838560  68.3226750  76.1122590  48.8232270
  69.7568250  76.3442620  49.2489810  67.8416850  76.0593100  35.9802130
  66.9380930  76.3223300  35.8053790  68.3257470  76.3304270  35.2002090
  70.3844060  75.1158640  33.8896510  71.0935760  74.6941860  33.4043790
  69.6684000  75.1833870  33.2579860  70.0318220  71.1697970  32.9299160
  70.7546350  71.7106910  33.2480380  70.3042740  70.8961390  32.0540700
  69.7210410  70.4204160  42.8321780  70.3686600  69.8701540  42.3916940
  70.1412250  70.6747310  43.6537590  69.4742410  70.5759830  45.5747100
  69.1257230  71.0323650  46.3405280  69.1430110  69.6816960  45.6569530
  70.1463050  70.1036030  48.8497870  70.6946040  69.9224080  48.0863980
  70.2118360  69.3130140  49.3854180  69.4565060  71.2091230  36.5234730
  70.2144420  71.3220110  35.9498760  68.9942230  72.0460430  36.4778160
  75.9978870  73.3230500  39.5137040  75.1853380  72.9487390  39.1732920
  76.5020510  72.5675580  39.8158230  71.8290210  71.7355280  35.0636700
  72.3582970  70.9485080  34.9344650  72.4618530  72.4146470  35.2972230
  74.0228050  71.4730420  38.1182090  73.3930790  70.7717730  38.2852220
  73.4833190  72.2334550  37.9015250  74.1483610  70.7514400  50.5534580
  73.8667880  71.2548000  49.7895400  74.5303310  69.9536150  50.1876710
  71.8041090  80.2759280  24.2534820  70.9725970  80.0207990  24.6531330
  72.4122070  80.3470050  24.9892740  70.2133040  75.2361170  18.0377210
  69.3249740  75.5777140  17.9357090  70.4974230  75.0361490  17.1458040
  68.1766050  77.8366820  23.9216910  68.7482160  77.0689020  23.9220550
  68.1767590  78.1355580  23.0123520  69.4190920  73.2451180  25.7085840
  69.2393760  72.3476930  25.9888600  69.0171000  73.7923050  26.3832790
  72.3894430  73.8192670  19.0715590  72.4961180  74.7196400  19.3784350
  71.4786790  73.7710640  18.7810240  70.0377590  75.7411680  24.3168180
  70.7187700  76.0050050  24.9355580  69.7225640  74.9012550  24.6506190
  74.2302160  76.7879040  23.4040770  74.7380380  77.2860010  24.0445790
  74.7615400  76.0114240  23.2280130  72.5138260  71.4277600  27.6704190
  72.5156700  71.9449990  26.8650090  71.6842570  70.9507780  27.6474120
  72.1953590  73.1387560  25.6774640  72.5370400  73.9829610  25.3828510
  71.2569400  73.2871300  25.7939980  75.8781480  70.6269830  22.0019230
  76.1856460  70.0716720  21.2854730  74.9482180  70.7614290  21.8192220
  73.8718880  79.2183400  21.5199080  73.4675880  78.5060650  21.0244980
  73.9582000  78.8736640  22.4087120  72.5847500  75.9926610  25.2998120
  73.1362090  76.1021950  24.5251370  73.0991010  76.3664210  26.0153350
  72.2590230  79.5145970  28.9103460  72.1198000  80.3868770  29.2790860
  71.3771590  79.1718780  28.7651400  70.5723510  78.1128380  19.0205730
  70.4521110  78.8390470  18.4087000  70.2624400  77.3431290  18.5433640
  73.0387170  71.4563450  22.4029400  72.5955320  72.2372990  22.0713920
  73.5972160  71.7793340  23.1100340  76.1545990  71.0774150  17.2835230
  75.5300170  71.0734020  18.0088540  76.0676110  70.2105110  16.8871200
  75.0763070  72.0010780  24.2619000  75.3735400  72.9073610  24.1811020
  75.6248630  71.5129560  23.6478570  72.8301390  76.5797020  20.1310650
  72.6042310  76.3634190  21.0357270  72.0493920  77.0125480  19.7856620
  75.2700600  77.4782600  30.7970920  75.1744200  76.5377330  30.6471320
  76.1132580  77.6997670  30.4018990  70.4011140  73.8896270  28.9504700
  70.0074530  74.7371480  29.1577480  69.7129540  73.2522640  29.1413340
  67.7028190  71.8124730  22.9834780  67.4141240  72.3827590  23.6959760
  68.4473950  71.3329180  23.3466010  67.8898420  75.7544850  14.1937500
  67.8073090  76.6975610  14.3352490  67.5381480  75.6119760  13.3149850
  75.6896550  74.4883880  23.2607850  75.6932610  74.0473830  22.4112390
  76.5847670  74.8101210  23.3679670  71.5398930  74.3710370  22.2202060
  71.1998980  74.8485600  22.9769110  70.7776250  73.9175490  21.8603160
  75.7516700  75.4895960  16.2514610  75.8729520  75.4482440  17.2000430
  75.3665210  76.3520110  16.0961340  74.7638200  77.7997100  15.6497910
  74.1955100  77.3515350  15.0233820  75.4727200  78.1589880  15.1163060
  75.9904520  78.5485660  25.0073260  76.3574650  78.0744230  25.7534600
  75.8009580  79.4227230  25.3481600  68.8545010  73.2929350  21.1366730
  68.5691930  72.9285020  21.9745350  68.7923870  72.5609810  20.5229870
  73.7803890  77.5894300  27.3257470  73.4760960  78.4686280  27.5507830
  74.7350350  77.6494090  27.3614910  69.8367620  78.4297040  28.4728830
  69.4782560  79.0950890  29.0602170  69.5422180  77.5980590  28.8441450
  73.0380740  78.8881280  31.3568380  72.7380880  79.0338460  30.4596200
  73.8091980  78.3286570  31.2641770  68.3475670  78.4288300  15.0963430
  69.2170520  78.7113100  15.3799350  67.8565990  79.2424170  14.9812240
  75.5110480  79.8161510  19.2171710  75.9673260  80.6266760  19.4431900
  75.1598690  79.4984650  20.0490200  71.4122260  70.1599160  19.6894230
  71.2836890  70.1517060  20.6379150  70.5884280  70.4982250  19.3385240
  68.4116190  71.9190280  29.1500930  67.6974710  72.1187200  29.7553540
  68.8311230  71.1429850  29.5215730  70.3322180  80.2461770  17.2245490
  69.7250130  80.9860670  17.2340790  70.8071530  80.3361130  16.3983690
  75.2401030  75.6455480  19.1247820  74.5317180  76.1141820  19.5661430
  75.5245510  74.9877490  19.7593010  73.4436050  73.9540560  16.4998530
  74.2926580  74.3910710  16.4338720  73.0767320  74.2660820  17.3270590
  72.3427470  80.2072920  14.9734060  73.1090740  80.0954280  15.5359490
  72.4202160  79.5110890  14.3210830  71.0374230  77.6397990  15.6566950
  71.1177820  76.6925500  15.7684350  71.9293980  77.9704870  15.7627610
  68.5645030  79.4612910  30.8923120  69.0684050  78.8820190  31.4639350
  67.8252450  79.7453140  31.4299490  70.5968110  77.6042500  31.7873190
  70.6373450  77.3056370  32.6958420  71.4513610  78.0050110  31.6280710
  74.3746500  80.2038050  16.9476700  74.7962920  80.0377920  17.7908090
  74.4997340  79.3938280  16.4531840  72.5373920  76.1834600  29.7547680
  72.0070380  75.6925550  29.1271020  73.2061990  76.6118800  29.2205610
  73.0246220  73.1496970  29.8344970  72.9303090  72.5317720  29.1095840
  72.4443610  73.8763260  29.6074880  75.7907660  71.7070210  26.8672360
  75.3424960  71.7294470  26.0217910  75.1572860  71.3089230  27.4642660
  73.2705400  76.2771280  13.8934860  73.0694460  75.4138640  14.2548200
  73.0997450  76.1904640  12.9556460  75.2999880  74.8762070  30.1298460
  75.8899570  74.5677920  30.8176280  74.4820120  74.4041820  30.2858360
  72.0688200  73.3771900  13.8812740  72.3714100  73.3839330  12.9731890
  72.8082790  73.0269760  14.3780400  75.2873130  72.3206520  14.8668940
  74.9395130  71.6430510  14.2871390  75.4885900  71.8596030  15.6812330
  68.6278770  78.8494170  21.2633310  67.9727610  78.5805810  20.6193010
  69.4656720  78.7398650  20.8135290  69.6654700  79.2346740  25.8036650
  70.0327740  79.1474140  26.6832670  69.0965520  78.4713290  25.7043510
  69.2170700  76.1455830  29.7095070  68.3226750  76.1122590  30.0488780
  69.7568250  76.3442620  30.4746320  67.8416850  76.0593100  17.2058640
  66.9380930  76.3223300  17.0310300  68.3257470  76.3304270  16.4258600
  70.3844060  75.1158640  15.1153020  71.0935760  74.6941860  14.6300300
  69.6684000  75.1833870  14.4836370  70.0318220  71.1697970  14.1555670
  70.7546350  71.7106910  14.4736890  70.3042740  70.8961390  13.2797210
  69.7210410  70.4204160  24.0578290  70.3686600  69.8701540  23.6173450
  70.1412250  70.6747310  24.8794100  69.4742410  70.5759830  26.8003610
  69.1257230  71.0323650  27.5661790  69.1430110  69.6816960  26.8826040
  70.1463050  70.1036030  30.0754380  70.6946040  69.9224080  29.3120490
  70.2118360  69.3130140  30.6110690  69.4565060  71.2091230  17.7491240
  70.2144420  71.3220110  17.1755270  68.9942230  72.0460430  17.7034670
  75.9978870  73.3230500  20.7393550  75.1853380  72.9487390  20.3989430
  76.5020510  72.5675580  21.0414740  71.8290210  71.7355280  16.2893210
  72.3582970  70.9485080  16.1601160  72.4618530  72.4146470  16.5228740
  74.0228050  71.4730420  19.3438600  73.3930790  70.7717730  19.5108730
  73.4833190  72.2334550  19.1271760  74.1483610  70.7514400  31.7791090
  73.8667880  71.2548000  31.0151910  74.5303310  69.9536150  31.4133220
  71.8041090  80.2759280   5.4791330  70.9725970  80.0207990   5.8787840
  72.4122070  80.3470050   6.2149250  68.1766050  77.8366820   5.1473420
  68.7482160  77.0689020   5.1477060  68.1767590  78.1355580   4.2380030
  69.4190920  73.2451180   6.9342350  69.2393760  72.3476930   7.2145110
  69.0171000  73.7923050   7.6089300  70.0377590  75.7411680   5.5424690
  70.7187700  76.0050050   6.1612090  69.7225640  74.9012550   5.8762700
  74.2302160  76.7879040   4.6297280  74.7380380  77.2860010   5.2702300
  74.7615400  76.0114240   4.4536640  72.5138260  71.4277600   8.8960700
  72.5156700  71.9449990   8.0906600  71.6842570  70.9507780   8.8730630
  72.1953590  73.1387560   6.9031150  72.5370400  73.9829610   6.6085020
  71.2569400  73.2871300   7.0196490  75.8781480  70.6269830   3.2275740
  76.1856460  70.0716720   2.5111240  74.9482180  70.7614290   3.0448730
  73.8718880  79.2183400   2.7455590  73.4675880  78.5060650   2.2501490
  73.9582000  78.8736640   3.6343630  72.5847500  75.9926610   6.5254630
  73.1362090  76.1021950   5.7507880  73.0991010  76.3664210   7.2409860
  72.2590230  79.5145970  10.1359970  72.1198000  80.3868770  10.5047370
  71.3771590  79.1718780   9.9907910  73.0387170  71.4563450   3.6285910
  72.5955320  72.2372990   3.2970430  73.5972160  71.7793340   4.3356850
  75.0763070  72.0010780   5.4875510  75.3735400  72.9073610   5.4067530
  75.6248630  71.5129560   4.8735080  75.2700600  77.4782600  12.0227430
  75.1744200  76.5377330  11.8727830  76.1132580  77.6997670  11.6275500
  70.4011140  73.8896270  10.1761210  70.0074530  74.7371480  10.3833990
  69.7129540  73.2522640  10.3669850  67.7028190  71.8124730   4.2091290
  67.4141240  72.3827590   4.9216270  68.4473950  71.3329180   4.5722520
  75.6896550  74.4883880   4.4864360  75.6932610  74.0473830   3.6368900
  76.5847670  74.8101210   4.5936180  71.5398930  74.3710370   3.4458570
  71.1998980  74.8485600   4.2025620  70.7776250  73.9175490   3.0859670
  75.9904520  78.5485660   6.2329770  76.3574650  78.0744230   6.9791110
  75.8009580  79.4227230   6.5738110  68.8545010  73.2929350   2.3623240
  68.5691930  72.9285020   3.2001860  68.7923870  72.5609810   1.7486380
  73.7803890  77.5894300   8.5513980  73.4760960  78.4686280   8.7764340
  74.7350350  77.6494090   8.5871420  69.8367620  78.4297040   9.6985340
  69.4782560  79.0950890  10.2858680  69.5422180  77.5980590  10.0697960
  73.0380740  78.8881280  12.5824890  72.7380880  79.0338460  11.6852710
  73.8091980  78.3286570  12.4898280  68.4116190  71.9190280  10.3757440
  67.6974710  72.1187200  10.9810050  68.8311230  71.1429850  10.7472240
  68.5645030  79.4612910  12.1179630  69.0684050  78.8820190  12.6895860
  67.8252450  79.7453140  12.6556000  70.5968110  77.6042500  13.0129700
  70.6373450  77.3056370  13.9214930  71.4513610  78.0050110  12.8537220
  72.5373920  76.1834600  10.9804190  72.0070380  75.6925550  10.3527530
  73.2061990  76.6118800  10.4462120  73.0246220  73.1496970  11.0601480
  72.9303090  72.5317720  10.3352350  72.4443610  73.8763260  10.8331390
  75.7907660  71.7070210   8.0928870  75.3424960  71.7294470   7.2474420
  75.1572860  71.3089230   8.6899170  75.2999880  74.8762070  11.3554970
  75.8899570  74.5677920  12.0432790  74.4820120  74.4041820  11.5114870
  68.6278770  78.8494170   2.4889820  67.9727610  78.5805810   1.8449520
  69.4656720  78.7398650   2.0391800  69.6654700  79.2346740   7.0293160
  70.0327740  79.1474140   7.9089180  69.0965520  78.4713290   6.9300020
  69.2170700  76.1455830  10.9351580  68.3226750  76.1122590  11.2745290
  69.7568250  76.3442620  11.7002830  69.7210410  70.4204160   5.2834800
  70.3686600  69.8701540   4.8429960  70.1412250  70.6747310   6.1050610
  69.4742410  70.5759830   8.0260120  69.1257230  71.0323650   8.7918300
  69.1430110  69.6816960   8.1082550  70.1463050  70.1036030  11.3010890
  70.6946040  69.9224080  10.5377000  70.2118360  69.3130140  11.8367200
  74.1483610  70.7514400  13.0047600  73.8667880  71.2548000  12.2408420
  74.5303310  69.9536150  12.6389730  71.8041090  61.5015790  80.5765290
  70.9725970  61.2464500  80.9761800  72.4122070  61.5726560  81.3123210
  71.7842350  65.5355880  80.7723310  72.0870390  64.6453620  80.5933530
  72.5285940  66.0926100  80.5445560  70.2133040  56.4617680  74.3607680
  69.3249740  56.8033650  74.2587560  70.4974230  56.2618000  73.4688510
  68.1766050  59.0623330  80.2447380  68.7482160  58.2945530  80.2451020
  68.1767590  59.3612090  79.3353990  72.3894430  55.0449180  75.3946060
  72.4961180  55.9452910  75.7014820  71.4786790  54.9967150  75.1040710
  70.0377590  56.9668190  80.6398650  70.7187700  57.2306560  81.2586050
  69.7225640  56.1269060  80.9736660  74.2302160  58.0135550  79.7271240
  74.7380380  58.5116520  80.3676260  74.7615400  57.2370750  79.5510600
  68.2692550  63.4509950  72.8664190  67.8920530  63.9397050  72.1349090
  68.5265620  64.1235230  73.4970720  75.8781480  51.8526340  78.3249700
  76.1856460  51.2973230  77.6085200  74.9482180  51.9870800  78.1422690
  73.8718880  60.4439910  77.8429550  73.4675880  59.7317160  77.3475450
  73.9582000  60.0993150  78.7317590  74.3400580  64.1307470  80.0068760
  74.0428870  63.5252940  79.3276540  75.2900400  64.1684780  79.8958120
  70.5723510  59.3384890  75.3436200  70.4521110  60.0646980  74.7317470
  70.2624400  58.5687800  74.8664110  68.2108880  62.5100030  81.1504840
  68.2889300  62.6448800  80.2060560  68.8250560  61.8015920  81.3432960
  69.4556510  64.2100220  77.5611020  69.0484590  64.3514810  76.7064620
  70.3469520  63.9260380  77.3582230  73.7278170  68.4246000  75.6733690
  73.5520650  67.5081540  75.4601490  72.8733910  68.7833290  75.9131490
  73.0387170  52.6819960  78.7259870  72.5955320  53.4629500  78.3944390
  73.5972160  53.0049850  79.4330810  76.1545990  52.3030660  73.6065700
  75.5300170  52.2990530  74.3319010  76.0676110  51.4361620  73.2101670
  75.0763070  53.2267290  80.5849470  75.3735400  54.1330120  80.5041490
  75.6248630  52.7386070  79.9709040  72.8301390  57.8053530  76.4541120
  72.6042310  57.5890700  77.3587740  72.0493920  58.2381990  76.1087090
  67.7028190  53.0381240  79.3065250  67.4141240  53.6084100  80.0190230
  68.4473950  52.5585690  79.6696480  67.8898420  56.9801360  70.5167970
  67.8073090  57.9232120  70.6582960  67.5381480  56.8376270  69.6380320
  75.6896550  55.7140390  79.5838320  75.6932610  55.2730340  78.7342860
  76.5847670  56.0357720  79.6910140  71.5398930  55.5966880  78.5432530
  71.1998980  56.0742110  79.2999580  70.7776250  55.1432000  78.1833630
  75.7516700  56.7152470  72.5745080  75.8729520  56.6738950  73.5230900
  75.3665210  57.5776620  72.4191810  74.7638200  59.0253610  71.9728380
  74.1955100  58.5771860  71.3464290  75.4727200  59.3846390  71.4393530
  68.8545010  54.5185860  77.4597200  68.5691930  54.1541530  78.2975820
  68.7923870  53.7866320  76.8460340  72.3085680  63.0211800  74.2454790
  71.5347940  62.4809420  74.0853510  73.0380310  62.5018410  73.9072550
  72.3523080  62.6892180  77.8833600  72.8701750  61.8860440  77.8290490
  71.9007100  62.6271320  78.7250430  76.2083270  64.0371990  75.9276820
  76.8954400  64.5841200  76.3084410  75.4215690  64.5812720  75.9626430
  68.3475670  59.6544810  71.4193900  69.2170520  59.9369610  71.7029820
  67.8565990  60.4680680  71.3042710  75.5110480  61.0418020  75.5402180
  75.9673260  61.8523270  75.7662370  75.1598690  60.7241160  76.3720670
  71.4122260  51.3855670  76.0124700  71.2836890  51.3773570  76.9609620
  70.5884280  51.7238760  75.6615710  68.7146920  68.8672190  71.9855530
  69.0744560  69.4661530  71.3312800  68.5739260  69.4132080  72.7590560
  74.7315540  66.2503390  72.8029200  74.7225640  66.9833080  72.1873710
  73.8113900  66.0034970  72.8956160  70.3322180  61.4718280  73.5475960
  69.7250130  62.2117180  73.5571260  70.8071530  61.5617640  72.7214160
  75.2401030  56.8711990  75.4478290  74.5317180  57.3398330  75.8891900
  75.5245510  56.2134000  76.0823480  76.3593250  68.8317950  76.1602060
  76.6134750  68.7939340  75.2381430  75.4105730  68.7051280  76.1530310
  73.4436050  55.1797070  72.8229000  74.2926580  55.6167220  72.7569190
  73.0767320  55.4917330  73.6501060  72.3427470  61.4329430  71.2964530
  73.1090740  61.3210790  71.8589960  72.4202160  60.7367400  70.6441300
  71.0374230  58.8654500  71.9797420  71.1177820  57.9182010  72.0914820
  71.9293980  59.1961380  72.0858080  71.8388940  69.0149890  79.0831960
  72.5751420  68.4665350  79.3540530  72.2229860  69.8805900  78.9437950
  68.7234420  65.0823460  74.9573470  67.7974200  65.3244600  74.9478880
  69.1890850  65.9097720  74.8358220  74.9491250  68.1880200  70.9057530
  75.7419860  68.4769030  70.4539320  74.4295600  67.7572370  70.2270010
  75.4668650  63.4083610  70.7699880  75.3619290  62.7935960  71.4961260
  75.2992870  62.8849500  69.9862890  74.3746500  61.4294560  73.2707170
  74.7962920  61.2634430  74.1138560  74.4997340  60.6194790  72.7762310
  73.2705400  57.5027790  70.2165330  73.0694460  56.6395150  70.5778670
  73.0997450  57.4161150  69.2786930  72.0688200  54.6028410  70.2043210
  72.3714100  54.6095840  69.2962360  72.8082790  54.2526270  70.7010870
  75.2873130  53.5463030  71.1899410  74.9395130  52.8687020  70.6101860
  75.4885900  53.0852540  72.0042800  71.0918330  63.9070830  71.0373010
  71.5293200  64.4500500  71.6930590  71.5766060  63.0817780  71.0469350
  68.3064130  66.6959860  78.4893270  68.6367140  65.8280920  78.2571910
  68.7355130  66.9018380  79.3198230  72.9026050  65.0268870  76.1495240
  72.6021590  64.9033840  77.0499150  72.7963540  64.1677460  75.7410970
  68.6278770  60.0750680  77.5863780  67.9727610  59.8062320  76.9423480
  69.4656720  59.9655160  77.1365760  67.8416850  57.2849610  73.5289110
  66.9380930  57.5479810  73.3540770  68.3257470  57.5560780  72.7489070
  70.3844060  56.3415150  71.4383490  71.0935760  55.9198370  70.9530770
  69.6684000  56.4090380  70.8066840  70.0318220  52.3954480  70.4786140
  70.7546350  52.9363420  70.7967360  70.3042740  52.1217900  69.6027680
  69.7210410  51.6460670  80.3808760  70.3686600  51.0958050  79.9403920
  70.1412250  51.9003820  81.2024570  74.1552140  67.5001570  80.1442500
  74.6717160  66.8888930  79.6190760  74.8049520  68.0030350  80.6353510
  68.8337040  68.6030960  76.5689850  68.6659080  67.9701640  77.2671740
  67.9671550  68.8090360  76.2184040  69.4565060  52.4347740  74.0721710
  70.2144420  52.5476620  73.4985740  68.9942230  53.2716940  74.0265140
  75.9978870  54.5487010  77.0624020  75.1853380  54.1743900  76.7219900
  76.5020510  53.7932090  77.3645210  70.4399740  67.2964190  74.0139990
  69.9147360  67.6772220  73.3101950  70.3644320  67.9214960  74.7349700
  71.8290210  52.9611790  72.6123680  72.3582970  52.1741590  72.4831630
  72.4618530  53.6402980  72.8459210  74.0228050  52.6986930  75.6669070
  73.3930790  51.9974240  75.8339200  73.4833190  53.4591060  75.4502230
  73.0392710  69.2446570  72.8889240  73.7711530  68.9605850  72.3413130
  73.2986380  69.0059850  73.7788620  72.2007500  65.3611300  72.8935570
  71.5716380  65.8296400  73.4421400  72.3155330  64.5160520  73.3281760
  71.8041090  61.5015790  61.8021800  70.9725970  61.2464500  62.2018310
  72.4122070  61.5726560  62.5379720  71.7842350  65.5355880  61.9979820
  72.0870390  64.6453620  61.8190040  72.5285940  66.0926100  61.7702070
  70.2133040  56.4617680  55.5864190  69.3249740  56.8033650  55.4844070
  70.4974230  56.2618000  54.6945020  68.1766050  59.0623330  61.4703890
  68.7482160  58.2945530  61.4707530  68.1767590  59.3612090  60.5610500
  69.4190920  54.4707690  63.2572820  69.2393760  53.5733440  63.5375580
  69.0171000  55.0179560  63.9319770  72.3894430  55.0449180  56.6202570
  72.4961180  55.9452910  56.9271330  71.4786790  54.9967150  56.3297220
  70.0377590  56.9668190  61.8655160  70.7187700  57.2306560  62.4842560
  69.7225640  56.1269060  62.1993170  74.2302160  58.0135550  60.9527750
  74.7380380  58.5116520  61.5932770  74.7615400  57.2370750  60.7767110
  72.5138260  52.6534110  65.2191170  72.5156700  53.1706500  64.4137070
  71.6842570  52.1764290  65.1961100  73.7641110  62.2929290  63.3964670
  73.4310490  62.9198210  64.0385740  73.9407790  62.8191170  62.6166340
  72.1953590  54.3644070  63.2261620  72.5370400  55.2086120  62.9315490
  71.2569400  54.5127810  63.3426960  72.9760210  64.2610090  65.2113850
  73.5934210  64.9361170  64.9298300  72.1153330  64.6698070  65.1201350
  68.2692550  63.4509950  54.0920700  67.8920530  63.9397050  53.3605600
  68.5265620  64.1235230  54.7227230  75.8781480  51.8526340  59.5506210
  76.1856460  51.2973230  58.8341710  74.9482180  51.9870800  59.3679200
  73.8718880  60.4439910  59.0686060  73.4675880  59.7317160  58.5731960
  73.9582000  60.0993150  59.9574100  74.3400580  64.1307470  61.2325270
  74.0428870  63.5252940  60.5533050  75.2900400  64.1684780  61.1214630
  72.5847500  57.2183120  62.8485100  73.1362090  57.3278460  62.0738350
  73.0991010  57.5920720  63.5640330  73.4319010  63.8689160  67.8833070
  72.5347540  64.0929130  68.1306470  73.4571880  63.9924100  66.9344470
  72.2590230  60.7402480  66.4590440  72.1198000  61.6125280  66.8277840
  71.3771590  60.3975290  66.3138380  74.0570580  66.6824180  68.6675590
  74.0286010  67.0867130  67.8004020  73.8935550  65.7534540  68.5047190
  70.5723510  59.3384890  56.5692710  70.4521110  60.0646980  55.9573980
  70.2624400  58.5687800  56.0920620  68.2108880  62.5100030  62.3761350
  68.2889300  62.6448800  61.4317070  68.8250560  61.8015920  62.5689470
  69.4556510  64.2100220  58.7867530  69.0484590  64.3514810  57.9321130
  70.3469520  63.9260380  58.5838740  73.7278170  68.4246000  56.8990200
  73.5520650  67.5081540  56.6858000  72.8733910  68.7833290  57.1388000
  68.2668400  63.5514200  64.9155810  68.4299440  63.0819560  64.0975180
  68.7320850  63.0437760  65.5804650  73.0387170  52.6819960  59.9516380
  72.5955320  53.4629500  59.6200900  73.5972160  53.0049850  60.6587320
  76.1545990  52.3030660  54.8322210  75.5300170  52.2990530  55.5575520
  76.0676110  51.4361620  54.4358180  75.0763070  53.2267290  61.8105980
  75.3735400  54.1330120  61.7298000  75.6248630  52.7386070  61.1965550
  72.8301390  57.8053530  57.6797630  72.6042310  57.5890700  58.5844250
  72.0493920  58.2381990  57.3343600  75.2700600  58.7039110  68.3457900
  75.1744200  57.7633840  68.1958300  76.1132580  58.9254180  67.9505970
  70.4011140  55.1152780  66.4991680  70.0074530  55.9627990  66.7064460
  69.7129540  54.4779150  66.6900320  67.7028190  53.0381240  60.5321760
  67.4141240  53.6084100  61.2446740  68.4473950  52.5585690  60.8952990
  67.8898420  56.9801360  51.7424480  67.8073090  57.9232120  51.8839470
  67.5381480  56.8376270  50.8636830  75.6896550  55.7140390  60.8094830
  75.6932610  55.2730340  59.9599370  76.5847670  56.0357720  60.9166650
  71.5398930  55.5966880  59.7689040  71.1998980  56.0742110  60.5256090
  70.7776250  55.1432000  59.4090140  75.7516700  56.7152470  53.8001590
  75.8729520  56.6738950  54.7487410  75.3665210  57.5776620  53.6448320
  74.7638200  59.0253610  53.1984890  74.1955100  58.5771860  52.5720800
  75.4727200  59.3846390  52.6650040  69.8407380  62.9265630  67.0751620
  69.4562170  62.2859300  67.6734580  70.1519570  63.6301750  67.6446350
  75.9904520  59.7742170  62.5560240  76.3574650  59.3000740  63.3021580
  75.8009580  60.6483740  62.8968580  68.8545010  54.5185860  58.6853710
  68.5691930  54.1541530  59.5232330  68.7923870  53.7866320  58.0716850
  73.7803890  58.8150810  64.8744450  73.4760960  59.6942790  65.0994810
  74.7350350  58.8750600  64.9101890  72.3085680  63.0211800  55.4711300
  71.5347940  62.4809420  55.3110020  73.0380310  62.5018410  55.1329060
  72.3523080  62.6892180  59.1090110  72.8701750  61.8860440  59.0547000
  71.9007100  62.6271320  59.9506940  69.8367620  59.6553550  66.0215810
  69.4782560  60.3207400  66.6089150  69.5422180  58.8237100  66.3928430
  73.0380740  60.1137790  68.9055360  72.7380880  60.2594970  68.0083180
  73.8091980  59.5543080  68.8128750  76.2083270  64.0371990  57.1533330
  76.8954400  64.5841200  57.5340920  75.4215690  64.5812720  57.1882940
  68.3475670  59.6544810  52.6450410  69.2170520  59.9369610  52.9286330
  67.8565990  60.4680680  52.5299220  75.5110480  61.0418020  56.7658690
  75.9673260  61.8523270  56.9918880  75.1598690  60.7241160  57.5977180
  71.4122260  51.3855670  57.2381210  71.2836890  51.3773570  58.1866130
  70.5884280  51.7238760  56.8872220  68.7146920  68.8672190  53.2112040
  69.0744560  69.4661530  52.5569310  68.5739260  69.4132080  53.9847070
  68.4116190  53.1446790  66.6987910  67.6974710  53.3443710  67.3040520
  68.8311230  52.3686360  67.0702710  68.6988780  67.1327050  67.6854440
  68.8079900  66.1921790  67.5449830  68.0469340  67.3981800  67.0368170
  76.6901370  65.4042940  69.0852560  76.3698240  64.6852180  69.6298250
  76.0159730  66.0798010  69.1588620  74.7315540  66.2503390  54.0285710
  74.7225640  66.9833080  53.4130220  73.8113900  66.0034970  54.1212670
  70.3322180  61.4718280  54.7732470  69.7250130  62.2117180  54.7827770
  70.8071530  61.5617640  53.9470670  75.2401030  56.8711990  56.6734800
  74.5317180  57.3398330  57.1148410  75.5245510  56.2134000  57.3079990
  76.3593250  68.8317950  57.3858570  76.6134750  68.7939340  56.4637940
  75.4105730  68.7051280  57.3786820  73.4436050  55.1797070  54.0485510
  74.2926580  55.6167220  53.9825700  73.0767320  55.4917330  54.8757570
  72.3427470  61.4329430  52.5221040  73.1090740  61.3210790  53.0846470
  72.4202160  60.7367400  51.8697810  71.0374230  58.8654500  53.2053930
  71.1177820  57.9182010  53.3171330  71.9293980  59.1961380  53.3114590
  71.8388940  69.0149890  60.3088470  72.5751420  68.4665350  60.5797040
  72.2229860  69.8805900  60.1694460  68.7234420  65.0823460  56.1829980
  67.7974200  65.3244600  56.1735390  69.1890850  65.9097720  56.0614730
  70.8447220  68.1995960  69.4974050  71.6459950  68.5208010  69.9109450
  70.3299040  67.8391540  70.2193960  74.9491250  68.1880200  52.1314040
  75.7419860  68.4769030  51.6795830  74.4295600  67.7572370  51.4526520
  68.5645030  60.6869420  68.4410100  69.0684050  60.1076700  69.0126330
  67.8252450  60.9709650  68.9786470  75.4668650  63.4083610  51.9956390
  75.3619290  62.7935960  52.7217770  75.2992870  62.8849500  51.2119400
  75.6182970  62.0940410  67.9745620  74.8528640  62.6625410  67.8900290
  75.7998930  61.8016620  67.0813850  70.5968110  58.8299010  69.3360170
  70.6373450  58.5312880  70.2445400  71.4513610  59.2306620  69.1767690
  74.3746500  61.4294560  54.4963680  74.7962920  61.2634430  55.3395070
  74.4997340  60.6194790  54.0018820  72.5373920  57.4091110  67.3034660
  72.0070380  56.9182060  66.6758000  73.2061990  57.8375310  66.7692590
  73.0246220  54.3753480  67.3831950  72.9303090  53.7574230  66.6582820
  72.4443610  55.1019770  67.1561860  75.7907660  52.9326720  64.4159340
  75.3424960  52.9550980  63.5704890  75.1572860  52.5345740  65.0129640
  76.1967210  61.8281050  65.0371780  76.6155320  62.6713780  64.8648020
  75.2775840  61.9653090  64.8078560  73.2705400  57.5027790  51.4421840
  73.0694460  56.6395150  51.8035180  73.0997450  57.4161150  50.5043440
  74.0474630  68.1334060  66.1529510  73.5095720  68.8580120  65.8338210
  74.3008590  67.6564400  65.3626850  75.2999880  56.1018580  67.6785440
  75.8899570  55.7934430  68.3663260  74.4820120  55.6298330  67.8345340
  72.0688200  54.6028410  51.4299720  72.3714100  54.6095840  50.5218870
  72.8082790  54.2526270  51.9267380  76.9036840  69.3685270  66.4116160
  76.8295540  70.2720410  66.7188530  76.0015680  69.0497170  66.3838230
  75.2873130  53.5463030  52.4155920  74.9395130  52.8687020  51.8358370
  75.4885900  53.0852540  53.2299310  71.0918330  63.9070830  52.2629520
  71.5293200  64.4500500  52.9187100  71.5766060  63.0817780  52.2725860
  68.3064130  66.6959860  59.7149780  68.6367140  65.8280920  59.4828420
  68.7355130  66.9018380  60.5454740  72.9026050  65.0268870  57.3751750
  72.6021590  64.9033840  58.2755660  72.7963540  64.1677460  56.9667480
  68.7954340  67.5630450  62.4531410  68.3585330  67.7431250  63.2855560
  69.3632020  68.3205070  62.3113130  68.6278770  60.0750680  58.8120290
  67.9727610  59.8062320  58.1679990  69.4656720  59.9655160  58.3622270
  69.6654700  60.4603250  63.3523630  70.0327740  60.3730650  64.2319650
  69.0965520  59.6969800  63.2530490  69.2170700  57.3712340  67.2582050
  68.3226750  57.3379100  67.5975760  69.7568250  57.5699130  68.0233300
  67.8416850  57.2849610  54.7545620  66.9380930  57.5479810  54.5797280
  68.3257470  57.5560780  53.9745580  70.3844060  56.3415150  52.6640000
  71.0935760  55.9198370  52.1787280  69.6684000  56.4090380  52.0323350
  70.0318220  52.3954480  51.7042650  70.7546350  52.9363420  52.0223870
  70.3042740  52.1217900  50.8284190  69.7210410  51.6460670  61.6065270
  70.3686600  51.0958050  61.1660430  70.1412250  51.9003820  62.4281080
  69.4742410  51.8016340  64.3490590  69.1257230  52.2580160  65.1148770
  69.1430110  50.9073470  64.4313020  71.0806780  64.9735940  68.5143780
  71.0376410  64.6028850  69.3958240  71.2117790  65.9113510  68.6545600
  74.7812810  66.5295530  64.1153500  74.5404170  66.7970090  63.2284020
  75.7215450  66.7001260  64.1704360  70.1463050  51.3292540  67.6241360
  70.6946040  51.1480590  66.8607470  70.2118360  50.5386650  68.1597670
  70.9194810  67.9198190  65.6341560  70.3255130  67.7882890  66.3731600
  70.9118650  67.0836330  65.1683660  70.5507040  65.2856570  64.5849600
  69.8241100  64.6661860  64.5175550  70.6116190  65.6797180  63.7147680
  74.1552140  67.5001570  61.3699010  74.6717160  66.8888930  60.8447270
  74.8049520  68.0030350  61.8610020  68.8337040  68.6030960  57.7946360
  68.6659080  67.9701640  58.4928250  67.9671550  68.8090360  57.4440550
  69.4565060  52.4347740  55.2978220  70.2144420  52.5476620  54.7242250
  68.9942230  53.2716940  55.2521650  75.9978870  54.5487010  58.2880530
  75.1853380  54.1743900  57.9476410  76.5020510  53.7932090  58.5901720
  70.4399740  67.2964190  55.2396500  69.9147360  67.6772220  54.5358460
  70.3644320  67.9214960  55.9606210  71.8290210  52.9611790  53.8380190
  72.3582970  52.1741590  53.7088140  72.4618530  53.6402980  54.0715720
  74.0228050  52.6986930  56.8925580  73.3930790  51.9974240  57.0595710
  73.4833190  53.4591060  56.6758740  74.1483610  51.9770910  69.3278070
  73.8667880  52.4804510  68.5638890  74.5303310  51.1792660  68.9620200
  73.0392710  69.2446570  54.1145750  73.7711530  68.9605850  53.5669640
  73.2986380  69.0059850  55.0045130  72.2007500  65.3611300  54.1192080
  71.5716380  65.8296400  54.6677910  72.3155330  64.5160520  54.5538270
  71.8041090  61.5015790  43.0278310  70.9725970  61.2464500  43.4274820
  72.4122070  61.5726560  43.7636230  71.7842350  65.5355880  43.2236330
  72.0870390  64.6453620  43.0446550  72.5285940  66.0926100  42.9958580
  70.2133040  56.4617680  36.8120700  69.3249740  56.8033650  36.7100580
  70.4974230  56.2618000  35.9201530  68.1766050  59.0623330  42.6960400
  68.7482160  58.2945530  42.6964040  68.1767590  59.3612090  41.7867010
  69.4190920  54.4707690  44.4829330  69.2393760  53.5733440  44.7632090
  69.0171000  55.0179560  45.1576280  72.3894430  55.0449180  37.8459080
  72.4961180  55.9452910  38.1527840  71.4786790  54.9967150  37.5553730
  70.0377590  56.9668190  43.0911670  70.7187700  57.2306560  43.7099070
  69.7225640  56.1269060  43.4249680  74.2302160  58.0135550  42.1784260
  74.7380380  58.5116520  42.8189280  74.7615400  57.2370750  42.0023620
  72.5138260  52.6534110  46.4447680  72.5156700  53.1706500  45.6393580
  71.6842570  52.1764290  46.4217610  73.7641110  62.2929290  44.6221180
  73.4310490  62.9198210  45.2642250  73.9407790  62.8191170  43.8422850
  72.1953590  54.3644070  44.4518130  72.5370400  55.2086120  44.1572000
  71.2569400  54.5127810  44.5683470  72.9760210  64.2610090  46.4370360
  73.5934210  64.9361170  46.1554810  72.1153330  64.6698070  46.3457860
  68.2692550  63.4509950  35.3177210  67.8920530  63.9397050  34.5862110
  68.5265620  64.1235230  35.9483740  75.8781480  51.8526340  40.7762720
  76.1856460  51.2973230  40.0598220  74.9482180  51.9870800  40.5935710
  73.8718880  60.4439910  40.2942570  73.4675880  59.7317160  39.7988470
  73.9582000  60.0993150  41.1830610  74.3400580  64.1307470  42.4581780
  74.0428870  63.5252940  41.7789560  75.2900400  64.1684780  42.3471140
  72.5847500  57.2183120  44.0741610  73.1362090  57.3278460  43.2994860
  73.0991010  57.5920720  44.7896840  73.4319010  63.8689160  49.1089580
  72.5347540  64.0929130  49.3562980  73.4571880  63.9924100  48.1600980
  72.2590230  60.7402480  47.6846950  72.1198000  61.6125280  48.0534350
  71.3771590  60.3975290  47.5394890  74.0570580  66.6824180  49.8932100
  74.0286010  67.0867130  49.0260530  73.8935550  65.7534540  49.7303700
  70.5723510  59.3384890  37.7949220  70.4521110  60.0646980  37.1830490
  70.2624400  58.5687800  37.3177130  68.2108880  62.5100030  43.6017860
  68.2889300  62.6448800  42.6573580  68.8250560  61.8015920  43.7945980
  69.4556510  64.2100220  40.0124040  69.0484590  64.3514810  39.1577640
  70.3469520  63.9260380  39.8095250  73.7278170  68.4246000  38.1246710
  73.5520650  67.5081540  37.9114510  72.8733910  68.7833290  38.3644510
  68.2668400  63.5514200  46.1412320  68.4299440  63.0819560  45.3231690
  68.7320850  63.0437760  46.8061160  73.0387170  52.6819960  41.1772890
  72.5955320  53.4629500  40.8457410  73.5972160  53.0049850  41.8843830
  76.1545990  52.3030660  36.0578720  75.5300170  52.2990530  36.7832030
  76.0676110  51.4361620  35.6614690  75.0763070  53.2267290  43.0362490
  75.3735400  54.1330120  42.9554510  75.6248630  52.7386070  42.4222060
  72.8301390  57.8053530  38.9054140  72.6042310  57.5890700  39.8100760
  72.0493920  58.2381990  38.5600110  75.2700600  58.7039110  49.5714410
  75.1744200  57.7633840  49.4214810  76.1132580  58.9254180  49.1762480
  70.4011140  55.1152780  47.7248190  70.0074530  55.9627990  47.9320970
  69.7129540  54.4779150  47.9156830  67.8898420  56.9801360  32.9680990
  67.8073090  57.9232120  33.1095980  67.5381480  56.8376270  32.0893340
  75.6896550  55.7140390  42.0351340  75.6932610  55.2730340  41.1855880
  76.5847670  56.0357720  42.1423160  71.5398930  55.5966880  40.9945550
  71.1998980  56.0742110  41.7512600  70.7776250  55.1432000  40.6346650
  75.7516700  56.7152470  35.0258100  75.8729520  56.6738950  35.9743920
  75.3665210  57.5776620  34.8704830  74.7638200  59.0253610  34.4241400
  74.1955100  58.5771860  33.7977310  75.4727200  59.3846390  33.8906550
  69.8407380  62.9265630  48.3008130  69.4562170  62.2859300  48.8991090
  70.1519570  63.6301750  48.8702860  75.9904520  59.7742170  43.7816750
  76.3574650  59.3000740  44.5278090  75.8009580  60.6483740  44.1225090
  68.8545010  54.5185860  39.9110220  68.5691930  54.1541530  40.7488840
  68.7923870  53.7866320  39.2973360  73.7803890  58.8150810  46.1000960
  73.4760960  59.6942790  46.3251320  74.7350350  58.8750600  46.1358400
  72.3085680  63.0211800  36.6967810  71.5347940  62.4809420  36.5366530
  73.0380310  62.5018410  36.3585570  72.3523080  62.6892180  40.3346620
  72.8701750  61.8860440  40.2803510  71.9007100  62.6271320  41.1763450
  69.8367620  59.6553550  47.2472320  69.4782560  60.3207400  47.8345660
  69.5422180  58.8237100  47.6184940  73.0380740  60.1137790  50.1311870
  72.7380880  60.2594970  49.2339690  73.8091980  59.5543080  50.0385260
  76.2083270  64.0371990  38.3789840  76.8954400  64.5841200  38.7597430
  75.4215690  64.5812720  38.4139450  68.3475670  59.6544810  33.8706920
  69.2170520  59.9369610  34.1542840  67.8565990  60.4680680  33.7555730
  75.5110480  61.0418020  37.9915200  75.9673260  61.8523270  38.2175390
  75.1598690  60.7241160  38.8233690  71.4122260  51.3855670  38.4637720
  71.2836890  51.3773570  39.4122640  70.5884280  51.7238760  38.1128730
  68.7146920  68.8672190  34.4368550  69.0744560  69.4661530  33.7825820
  68.5739260  69.4132080  35.2103580  68.4116190  53.1446790  47.9244420
  67.6974710  53.3443710  48.5297030  68.8311230  52.3686360  48.2959220
  68.6988780  67.1327050  48.9110950  68.8079900  66.1921790  48.7706340
  68.0469340  67.3981800  48.2624680  76.6901370  65.4042940  50.3109070
  76.3698240  64.6852180  50.8554760  76.0159730  66.0798010  50.3845130
  74.7315540  66.2503390  35.2542220  74.7225640  66.9833080  34.6386730
  73.8113900  66.0034970  35.3469180  70.3322180  61.4718280  35.9988980
  69.7250130  62.2117180  36.0084280  70.8071530  61.5617640  35.1727180
  75.2401030  56.8711990  37.8991310  74.5317180  57.3398330  38.3404920
  75.5245510  56.2134000  38.5336500  76.3593250  68.8317950  38.6115080
  76.6134750  68.7939340  37.6894450  75.4105730  68.7051280  38.6043330
  73.4436050  55.1797070  35.2742020  74.2926580  55.6167220  35.2082210
  73.0767320  55.4917330  36.1014080  72.3427470  61.4329430  33.7477550
  73.1090740  61.3210790  34.3102980  72.4202160  60.7367400  33.0954320
  71.0374230  58.8654500  34.4310440  71.1177820  57.9182010  34.5427840
  71.9293980  59.1961380  34.5371100  71.8388940  69.0149890  41.5344980
  72.5751420  68.4665350  41.8053550  72.2229860  69.8805900  41.3950970
  68.7234420  65.0823460  37.4086490  67.7974200  65.3244600  37.3991900
  69.1890850  65.9097720  37.2871240  70.8447220  68.1995960  50.7230560
  71.6459950  68.5208010  51.1365960  70.3299040  67.8391540  51.4450470
  74.9491250  68.1880200  33.3570550  75.7419860  68.4769030  32.9052340
  74.4295600  67.7572370  32.6783030  68.5645030  60.6869420  49.6666610
  69.0684050  60.1076700  50.2382840  67.8252450  60.9709650  50.2042980
  75.4668650  63.4083610  33.2212900  75.3619290  62.7935960  33.9474280
  75.2992870  62.8849500  32.4375910  75.6182970  62.0940410  49.2002130
  74.8528640  62.6625410  49.1156800  75.7998930  61.8016620  48.3070360
  70.5968110  58.8299010  50.5616680  70.6373450  58.5312880  51.4701910
  71.4513610  59.2306620  50.4024200  74.3746500  61.4294560  35.7220190
  74.7962920  61.2634430  36.5651580  74.4997340  60.6194790  35.2275330
  72.5373920  57.4091110  48.5291170  72.0070380  56.9182060  47.9014510
  73.2061990  57.8375310  47.9949100  73.0246220  54.3753480  48.6088460
  72.9303090  53.7574230  47.8839330  72.4443610  55.1019770  48.3818370
  75.7907660  52.9326720  45.6415850  75.3424960  52.9550980  44.7961400
  75.1572860  52.5345740  46.2386150  76.1967210  61.8281050  46.2628290
  76.6155320  62.6713780  46.0904530  75.2775840  61.9653090  46.0335070
  73.2705400  57.5027790  32.6678350  73.0694460  56.6395150  33.0291690
  73.0997450  57.4161150  31.7299950  74.0474630  68.1334060  47.3786020
  73.5095720  68.8580120  47.0594720  74.3008590  67.6564400  46.5883360
  75.2999880  56.1018580  48.9041950  75.8899570  55.7934430  49.5919770
  74.4820120  55.6298330  49.0601850  72.0688200  54.6028410  32.6556230
  72.3714100  54.6095840  31.7475380  72.8082790  54.2526270  33.1523890
  76.9036840  69.3685270  47.6372670  76.8295540  70.2720410  47.9445040
  76.0015680  69.0497170  47.6094740  75.2873130  53.5463030  33.6412430
  74.9395130  52.8687020  33.0614880  75.4885900  53.0852540  34.4555820
  71.0918330  63.9070830  33.4886030  71.5293200  64.4500500  34.1443610
  71.5766060  63.0817780  33.4982370  68.3064130  66.6959860  40.9406290
  68.6367140  65.8280920  40.7084930  68.7355130  66.9018380  41.7711250
  72.9026050  65.0268870  38.6008260  72.6021590  64.9033840  39.5012170
  72.7963540  64.1677460  38.1923990  68.7954340  67.5630450  43.6787920
  68.3585330  67.7431250  44.5112070  69.3632020  68.3205070  43.5369640
  68.6278770  60.0750680  40.0376800  67.9727610  59.8062320  39.3936500
  69.4656720  59.9655160  39.5878780  69.6654700  60.4603250  44.5780140
  70.0327740  60.3730650  45.4576160  69.0965520  59.6969800  44.4787000
  69.2170700  57.3712340  48.4838560  68.3226750  57.3379100  48.8232270
  69.7568250  57.5699130  49.2489810  67.8416850  57.2849610  35.9802130
  66.9380930  57.5479810  35.8053790  68.3257470  57.5560780  35.2002090
  70.3844060  56.3415150  33.8896510  71.0935760  55.9198370  33.4043790
  69.6684000  56.4090380  33.2579860  70.0318220  52.3954480  32.9299160
  70.7546350  52.9363420  33.2480380  70.3042740  52.1217900  32.0540700
  69.7210410  51.6460670  42.8321780  70.3686600  51.0958050  42.3916940
  70.1412250  51.9003820  43.6537590  69.4742410  51.8016340  45.5747100
  69.1257230  52.2580160  46.3405280  69.1430110  50.9073470  45.6569530
  71.0806780  64.9735940  49.7400290  71.0376410  64.6028850  50.6214750
  71.2117790  65.9113510  49.8802110  74.7812810  66.5295530  45.3410010
  74.5404170  66.7970090  44.4540530  75.7215450  66.7001260  45.3960870
  70.1463050  51.3292540  48.8497870  70.6946040  51.1480590  48.0863980
  70.2118360  50.5386650  49.3854180  70.9194810  67.9198190  46.8598070
  70.3255130  67.7882890  47.5988110  70.9118650  67.0836330  46.3940170
  70.5507040  65.2856570  45.8106110  69.8241100  64.6661860  45.7432060
  70.6116190  65.6797180  44.9404190  74.1552140  67.5001570  42.5955520
  74.6717160  66.8888930  42.0703780  74.8049520  68.0030350  43.0866530
  68.8337040  68.6030960  39.0202870  68.6659080  67.9701640  39.7184760
  67.9671550  68.8090360  38.6697060  69.4565060  52.4347740  36.5234730
  70.2144420  52.5476620  35.9498760  68.9942230  53.2716940  36.4778160
  75.9978870  54.5487010  39.5137040  75.1853380  54.1743900  39.1732920
  76.5020510  53.7932090  39.8158230  70.4399740  67.2964190  36.4653010
  69.9147360  67.6772220  35.7614970  70.3644320  67.9214960  37.1862720
  71.8290210  52.9611790  35.0636700  72.3582970  52.1741590  34.9344650
  72.4618530  53.6402980  35.2972230  74.0228050  52.6986930  38.1182090
  73.3930790  51.9974240  38.2852220  73.4833190  53.4591060  37.9015250
  74.1483610  51.9770910  50.5534580  73.8667880  52.4804510  49.7895400
  74.5303310  51.1792660  50.1876710  73.0392710  69.2446570  35.3402260
  73.7711530  68.9605850  34.7926150  73.2986380  69.0059850  36.2301640
  72.2007500  65.3611300  35.3448590  71.5716380  65.8296400  35.8934420
  72.3155330  64.5160520  35.7794780  71.8041090  61.5015790  24.2534820
  70.9725970  61.2464500  24.6531330  72.4122070  61.5726560  24.9892740
  71.7842350  65.5355880  24.4492840  72.0870390  64.6453620  24.2703060
  72.5285940  66.0926100  24.2215090  70.2133040  56.4617680  18.0377210
  69.3249740  56.8033650  17.9357090  70.4974230  56.2618000  17.1458040
  68.1766050  59.0623330  23.9216910  68.7482160  58.2945530  23.9220550
  68.1767590  59.3612090  23.0123520  69.4190920  54.4707690  25.7085840
  69.2393760  53.5733440  25.9888600  69.0171000  55.0179560  26.3832790
  72.3894430  55.0449180  19.0715590  72.4961180  55.9452910  19.3784350
  71.4786790  54.9967150  18.7810240  70.0377590  56.9668190  24.3168180
  70.7187700  57.2306560  24.9355580  69.7225640  56.1269060  24.6506190
  74.2302160  58.0135550  23.4040770  74.7380380  58.5116520  24.0445790
  74.7615400  57.2370750  23.2280130  72.5138260  52.6534110  27.6704190
  72.5156700  53.1706500  26.8650090  71.6842570  52.1764290  27.6474120
  73.7641110  62.2929290  25.8477690  73.4310490  62.9198210  26.4898760
  73.9407790  62.8191170  25.0679360  72.1953590  54.3644070  25.6774640
  72.5370400  55.2086120  25.3828510  71.2569400  54.5127810  25.7939980
  72.9760210  64.2610090  27.6626870  73.5934210  64.9361170  27.3811320
  72.1153330  64.6698070  27.5714370  68.2692550  63.4509950  16.5433720
  67.8920530  63.9397050  15.8118620  68.5265620  64.1235230  17.1740250
  75.8781480  51.8526340  22.0019230  76.1856460  51.2973230  21.2854730
  74.9482180  51.9870800  21.8192220  73.8718880  60.4439910  21.5199080
  73.4675880  59.7317160  21.0244980  73.9582000  60.0993150  22.4087120
  74.3400580  64.1307470  23.6838290  74.0428870  63.5252940  23.0046070
  75.2900400  64.1684780  23.5727650  72.5847500  57.2183120  25.2998120
  73.1362090  57.3278460  24.5251370  73.0991010  57.5920720  26.0153350
  73.4319010  63.8689160  30.3346090  72.5347540  64.0929130  30.5819490
  73.4571880  63.9924100  29.3857490  72.2590230  60.7402480  28.9103460
  72.1198000  61.6125280  29.2790860  71.3771590  60.3975290  28.7651400
  74.0570580  66.6824180  31.1188610  74.0286010  67.0867130  30.2517040
  73.8935550  65.7534540  30.9560210  70.5723510  59.3384890  19.0205730
  70.4521110  60.0646980  18.4087000  70.2624400  58.5687800  18.5433640
  68.2108880  62.5100030  24.8274370  68.2889300  62.6448800  23.8830090
  68.8250560  61.8015920  25.0202490  69.4556510  64.2100220  21.2380550
  69.0484590  64.3514810  20.3834150  70.3469520  63.9260380  21.0351760
  73.7278170  68.4246000  19.3503220  73.5520650  67.5081540  19.1371020
  72.8733910  68.7833290  19.5901020  68.2668400  63.5514200  27.3668830
  68.4299440  63.0819560  26.5488200  68.7320850  63.0437760  28.0317670
  73.0387170  52.6819960  22.4029400  72.5955320  53.4629500  22.0713920
  73.5972160  53.0049850  23.1100340  76.1545990  52.3030660  17.2835230
  75.5300170  52.2990530  18.0088540  76.0676110  51.4361620  16.8871200
  75.0763070  53.2267290  24.2619000  75.3735400  54.1330120  24.1811020
  75.6248630  52.7386070  23.6478570  72.8301390  57.8053530  20.1310650
  72.6042310  57.5890700  21.0357270  72.0493920  58.2381990  19.7856620
  75.2700600  58.7039110  30.7970920  75.1744200  57.7633840  30.6471320
  76.1132580  58.9254180  30.4018990  70.4011140  55.1152780  28.9504700
  70.0074530  55.9627990  29.1577480  69.7129540  54.4779150  29.1413340
  67.7028190  53.0381240  22.9834780  67.4141240  53.6084100  23.6959760
  68.4473950  52.5585690  23.3466010  67.8898420  56.9801360  14.1937500
  67.8073090  57.9232120  14.3352490  67.5381480  56.8376270  13.3149850
  75.6896550  55.7140390  23.2607850  75.6932610  55.2730340  22.4112390
  76.5847670  56.0357720  23.3679670  71.5398930  55.5966880  22.2202060
  71.1998980  56.0742110  22.9769110  70.7776250  55.1432000  21.8603160
  75.7516700  56.7152470  16.2514610  75.8729520  56.6738950  17.2000430
  75.3665210  57.5776620  16.0961340  74.7638200  59.0253610  15.6497910
  74.1955100  58.5771860  15.0233820  75.4727200  59.3846390  15.1163060
  69.8407380  62.9265630  29.5264640  69.4562170  62.2859300  30.1247600
  70.1519570  63.6301750  30.0959370  75.9904520  59.7742170  25.0073260
  76.3574650  59.3000740  25.7534600  75.8009580  60.6483740  25.3481600
  68.8545010  54.5185860  21.1366730  68.5691930  54.1541530  21.9745350
  68.7923870  53.7866320  20.5229870  73.7803890  58.8150810  27.3257470
  73.4760960  59.6942790  27.5507830  74.7350350  58.8750600  27.3614910
  72.3085680  63.0211800  17.9224320  71.5347940  62.4809420  17.7623040
  73.0380310  62.5018410  17.5842080  72.3523080  62.6892180  21.5603130
  72.8701750  61.8860440  21.5060020  71.9007100  62.6271320  22.4019960
  69.8367620  59.6553550  28.4728830  69.4782560  60.3207400  29.0602170
  69.5422180  58.8237100  28.8441450  73.0380740  60.1137790  31.3568380
  72.7380880  60.2594970  30.4596200  73.8091980  59.5543080  31.2641770
  76.2083270  64.0371990  19.6046350  76.8954400  64.5841200  19.9853940
  75.4215690  64.5812720  19.6395960  68.3475670  59.6544810  15.0963430
  69.2170520  59.9369610  15.3799350  67.8565990  60.4680680  14.9812240
  75.5110480  61.0418020  19.2171710  75.9673260  61.8523270  19.4431900
  75.1598690  60.7241160  20.0490200  71.4122260  51.3855670  19.6894230
  71.2836890  51.3773570  20.6379150  70.5884280  51.7238760  19.3385240
  68.7146920  68.8672190  15.6625060  69.0744560  69.4661530  15.0082330
  68.5739260  69.4132080  16.4360090  68.4116190  53.1446790  29.1500930
  67.6974710  53.3443710  29.7553540  68.8311230  52.3686360  29.5215730
  68.6988780  67.1327050  30.1367460  68.8079900  66.1921790  29.9962850
  68.0469340  67.3981800  29.4881190  76.6901370  65.4042940  31.5365580
  76.3698240  64.6852180  32.0811270  76.0159730  66.0798010  31.6101640
  74.7315540  66.2503390  16.4798730  74.7225640  66.9833080  15.8643240
  73.8113900  66.0034970  16.5725690  70.3322180  61.4718280  17.2245490
  69.7250130  62.2117180  17.2340790  70.8071530  61.5617640  16.3983690
  75.2401030  56.8711990  19.1247820  74.5317180  57.3398330  19.5661430
  75.5245510  56.2134000  19.7593010  76.3593250  68.8317950  19.8371590
  76.6134750  68.7939340  18.9150960  75.4105730  68.7051280  19.8299840
  73.4436050  55.1797070  16.4998530  74.2926580  55.6167220  16.4338720
  73.0767320  55.4917330  17.3270590  72.3427470  61.4329430  14.9734060
  73.1090740  61.3210790  15.5359490  72.4202160  60.7367400  14.3210830
  71.0374230  58.8654500  15.6566950  71.1177820  57.9182010  15.7684350
  71.9293980  59.1961380  15.7627610  71.8388940  69.0149890  22.7601490
  72.5751420  68.4665350  23.0310060  72.2229860  69.8805900  22.6207480
  68.7234420  65.0823460  18.6343000  67.7974200  65.3244600  18.6248410
  69.1890850  65.9097720  18.5127750  70.8447220  68.1995960  31.9487070
  71.6459950  68.5208010  32.3622470  70.3299040  67.8391540  32.6706980
  74.9491250  68.1880200  14.5827060  75.7419860  68.4769030  14.1308850
  74.4295600  67.7572370  13.9039540  68.5645030  60.6869420  30.8923120
  69.0684050  60.1076700  31.4639350  67.8252450  60.9709650  31.4299490
  75.4668650  63.4083610  14.4469410  75.3619290  62.7935960  15.1730790
  75.2992870  62.8849500  13.6632420  75.6182970  62.0940410  30.4258640
  74.8528640  62.6625410  30.3413310  75.7998930  61.8016620  29.5326870
  70.5968110  58.8299010  31.7873190  70.6373450  58.5312880  32.6958420
  71.4513610  59.2306620  31.6280710  74.3746500  61.4294560  16.9476700
  74.7962920  61.2634430  17.7908090  74.4997340  60.6194790  16.4531840
  72.5373920  57.4091110  29.7547680  72.0070380  56.9182060  29.1271020
  73.2061990  57.8375310  29.2205610  73.0246220  54.3753480  29.8344970
  72.9303090  53.7574230  29.1095840  72.4443610  55.1019770  29.6074880
  75.7907660  52.9326720  26.8672360  75.3424960  52.9550980  26.0217910
  75.1572860  52.5345740  27.4642660  76.1967210  61.8281050  27.4884800
  76.6155320  62.6713780  27.3161040  75.2775840  61.9653090  27.2591580
  73.2705400  57.5027790  13.8934860  73.0694460  56.6395150  14.2548200
  73.0997450  57.4161150  12.9556460  74.0474630  68.1334060  28.6042530
  73.5095720  68.8580120  28.2851230  74.3008590  67.6564400  27.8139870
  75.2999880  56.1018580  30.1298460  75.8899570  55.7934430  30.8176280
  74.4820120  55.6298330  30.2858360  72.0688200  54.6028410  13.8812740
  72.3714100  54.6095840  12.9731890  72.8082790  54.2526270  14.3780400
  76.9036840  69.3685270  28.8629180  76.8295540  70.2720410  29.1701550
  76.0015680  69.0497170  28.8351250  75.2873130  53.5463030  14.8668940
  74.9395130  52.8687020  14.2871390  75.4885900  53.0852540  15.6812330
  71.0918330  63.9070830  14.7142540  71.5293200  64.4500500  15.3700120
  71.5766060  63.0817780  14.7238880  68.3064130  66.6959860  22.1662800
  68.6367140  65.8280920  21.9341440  68.7355130  66.9018380  22.9967760
  72.9026050  65.0268870  19.8264770  72.6021590  64.9033840  20.7268680
  72.7963540  64.1677460  19.4180500  68.7954340  67.5630450  24.9044430
  68.3585330  67.7431250  25.7368580  69.3632020  68.3205070  24.7626150
  68.6278770  60.0750680  21.2633310  67.9727610  59.8062320  20.6193010
  69.4656720  59.9655160  20.8135290  69.6654700  60.4603250  25.8036650
  70.0327740  60.3730650  26.6832670  69.0965520  59.6969800  25.7043510
  69.2170700  57.3712340  29.7095070  68.3226750  57.3379100  30.0488780
  69.7568250  57.5699130  30.4746320  67.8416850  57.2849610  17.2058640
  66.9380930  57.5479810  17.0310300  68.3257470  57.5560780  16.4258600
  70.3844060  56.3415150  15.1153020  71.0935760  55.9198370  14.6300300
  69.6684000  56.4090380  14.4836370  70.0318220  52.3954480  14.1555670
  70.7546350  52.9363420  14.4736890  70.3042740  52.1217900  13.2797210
  69.7210410  51.6460670  24.0578290  70.3686600  51.0958050  23.6173450
  70.1412250  51.9003820  24.8794100  69.4742410  51.8016340  26.8003610
  69.1257230  52.2580160  27.5661790  69.1430110  50.9073470  26.8826040
  71.0806780  64.9735940  30.9656800  71.0376410  64.6028850  31.8471260
  71.2117790  65.9113510  31.1058620  74.7812810  66.5295530  26.5666520
  74.5404170  66.7970090  25.6797040  75.7215450  66.7001260  26.6217380
  70.1463050  51.3292540  30.0754380  70.6946040  51.1480590  29.3120490
  70.2118360  50.5386650  30.6110690  70.9194810  67.9198190  28.0854580
  70.3255130  67.7882890  28.8244620  70.9118650  67.0836330  27.6196680
  70.5507040  65.2856570  27.0362620  69.8241100  64.6661860  26.9688570
  70.6116190  65.6797180  26.1660700  74.1552140  67.5001570  23.8212030
  74.6717160  66.8888930  23.2960290  74.8049520  68.0030350  24.3123040
  68.8337040  68.6030960  20.2459380  68.6659080  67.9701640  20.9441270
  67.9671550  68.8090360  19.8953570  69.4565060  52.4347740  17.7491240
  70.2144420  52.5476620  17.1755270  68.9942230  53.2716940  17.7034670
  75.9978870  54.5487010  20.7393550  75.1853380  54.1743900  20.3989430
  76.5020510  53.7932090  21.0414740  70.4399740  67.2964190  17.6909520
  69.9147360  67.6772220  16.9871480  70.3644320  67.9214960  18.4119230
  71.8290210  52.9611790  16.2893210  72.3582970  52.1741590  16.1601160
  72.4618530  53.6402980  16.5228740  74.0228050  52.6986930  19.3438600
  73.3930790  51.9974240  19.5108730  73.4833190  53.4591060  19.1271760
  74.1483610  51.9770910  31.7791090  73.8667880  52.4804510  31.0151910
  74.5303310  51.1792660  31.4133220  73.0392710  69.2446570  16.5658770
  73.7711530  68.9605850  16.0182660  73.2986380  69.0059850  17.4558150
  72.2007500  65.3611300  16.5705100  71.5716380  65.8296400  17.1190930
  72.3155330  64.5160520  17.0051290  71.8041090  61.5015790   5.4791330
  70.9725970  61.2464500   5.8787840  72.4122070  61.5726560   6.2149250
  71.7842350  65.5355880   5.6749350  72.0870390  64.6453620   5.4959570
  72.5285940  66.0926100   5.4471600  68.1766050  59.0623330   5.1473420
  68.7482160  58.2945530   5.1477060  68.1767590  59.3612090   4.2380030
  69.4190920  54.4707690   6.9342350  69.2393760  53.5733440   7.2145110
  69.0171000  55.0179560   7.6089300  70.0377590  56.9668190   5.5424690
  70.7187700  57.2306560   6.1612090  69.7225640  56.1269060   5.8762700
  74.2302160  58.0135550   4.6297280  74.7380380  58.5116520   5.2702300
  74.7615400  57.2370750   4.4536640  72.5138260  52.6534110   8.8960700
  72.5156700  53.1706500   8.0906600  71.6842570  52.1764290   8.8730630
  73.7641110  62.2929290   7.0734200  73.4310490  62.9198210   7.7155270
  73.9407790  62.8191170   6.2935870  72.1953590  54.3644070   6.9031150
  72.5370400  55.2086120   6.6085020  71.2569400  54.5127810   7.0196490
  72.9760210  64.2610090   8.8883380  73.5934210  64.9361170   8.6067830
  72.1153330  64.6698070   8.7970880  75.8781480  51.8526340   3.2275740
  76.1856460  51.2973230   2.5111240  74.9482180  51.9870800   3.0448730
  73.8718880  60.4439910   2.7455590  73.4675880  59.7317160   2.2501490
  73.9582000  60.0993150   3.6343630  74.3400580  64.1307470   4.9094800
  74.0428870  63.5252940   4.2302580  75.2900400  64.1684780   4.7984160
  72.5847500  57.2183120   6.5254630  73.1362090  57.3278460   5.7507880
  73.0991010  57.5920720   7.2409860  73.4319010  63.8689160  11.5602600
  72.5347540  64.0929130  11.8076000  73.4571880  63.9924100  10.6114000
  72.2590230  60.7402480  10.1359970  72.1198000  61.6125280  10.5047370
  71.3771590  60.3975290   9.9907910  74.0570580  66.6824180  12.3445120
  74.0286010  67.0867130  11.4773550  73.8935550  65.7534540  12.1816720
  68.2108880  62.5100030   6.0530880  68.2889300  62.6448800   5.1086600
  68.8250560  61.8015920   6.2459000  68.2668400  63.5514200   8.5925340
  68.4299440  63.0819560   7.7744710  68.7320850  63.0437760   9.2574180
  73.0387170  52.6819960   3.6285910  72.5955320  53.4629500   3.2970430
  73.5972160  53.0049850   4.3356850  75.0763070  53.2267290   5.4875510
  75.3735400  54.1330120   5.4067530  75.6248630  52.7386070   4.8735080
  75.2700600  58.7039110  12.0227430  75.1744200  57.7633840  11.8727830
  76.1132580  58.9254180  11.6275500  70.4011140  55.1152780  10.1761210
  70.0074530  55.9627990  10.3833990  69.7129540  54.4779150  10.3669850
  67.7028190  53.0381240   4.2091290  67.4141240  53.6084100   4.9216270
  68.4473950  52.5585690   4.5722520  75.6896550  55.7140390   4.4864360
  75.6932610  55.2730340   3.6368900  76.5847670  56.0357720   4.5936180
  71.5398930  55.5966880   3.4458570  71.1998980  56.0742110   4.2025620
  70.7776250  55.1432000   3.0859670  69.8407380  62.9265630  10.7521150
  69.4562170  62.2859300  11.3504110  70.1519570  63.6301750  11.3215880
  75.9904520  59.7742170   6.2329770  76.3574650  59.3000740   6.9791110
  75.8009580  60.6483740   6.5738110  68.8545010  54.5185860   2.3623240
  68.5691930  54.1541530   3.2001860  68.7923870  53.7866320   1.7486380
  73.7803890  58.8150810   8.5513980  73.4760960  59.6942790   8.7764340
  74.7350350  58.8750600   8.5871420  72.3523080  62.6892180   2.7859640
  72.8701750  61.8860440   2.7316530  71.9007100  62.6271320   3.6276470
  69.8367620  59.6553550   9.6985340  69.4782560  60.3207400  10.2858680
  69.5422180  58.8237100  10.0697960  73.0380740  60.1137790  12.5824890
  72.7380880  60.2594970  11.6852710  73.8091980  59.5543080  12.4898280
  68.4116190  53.1446790  10.3757440  67.6974710  53.3443710  10.9810050
  68.8311230  52.3686360  10.7472240  68.6988780  67.1327050  11.3623970
  68.8079900  66.1921790  11.2219360  68.0469340  67.3981800  10.7137700
  76.6901370  65.4042940  12.7622090  76.3698240  64.6852180  13.3067780
  76.0159730  66.0798010  12.8358150  71.8388940  69.0149890   3.9858000
  72.5751420  68.4665350   4.2566570  72.2229860  69.8805900   3.8463990
  70.8447220  68.1995960  13.1743580  71.6459950  68.5208010  13.5878980
  70.3299040  67.8391540  13.8963490  68.5645030  60.6869420  12.1179630
  69.0684050  60.1076700  12.6895860  67.8252450  60.9709650  12.6556000
  75.6182970  62.0940410  11.6515150  74.8528640  62.6625410  11.5669820
  75.7998930  61.8016620  10.7583380  70.5968110  58.8299010  13.0129700
  70.6373450  58.5312880  13.9214930  71.4513610  59.2306620  12.8537220
  72.5373920  57.4091110  10.9804190  72.0070380  56.9182060  10.3527530
  73.2061990  57.8375310  10.4462120  73.0246220  54.3753480  11.0601480
  72.9303090  53.7574230  10.3352350  72.4443610  55.1019770  10.8331390
  75.7907660  52.9326720   8.0928870  75.3424960  52.9550980   7.2474420
  75.1572860  52.5345740   8.6899170  76.1967210  61.8281050   8.7141310
  76.6155320  62.6713780   8.5417550  75.2775840  61.9653090   8.4848090
  74.0474630  68.1334060   9.8299040  73.5095720  68.8580120   9.5107740
  74.3008590  67.6564400   9.0396380  75.2999880  56.1018580  11.3554970
  75.8899570  55.7934430  12.0432790  74.4820120  55.6298330  11.5114870
  76.9036840  69.3685270  10.0885690  76.8295540  70.2720410  10.3958060
  76.0015680  69.0497170  10.0607760  68.3064130  66.6959860   3.3919310
  68.6367140  65.8280920   3.1597950  68.7355130  66.9018380   4.2224270
  68.7954340  67.5630450   6.1300940  68.3585330  67.7431250   6.9625090
  69.3632020  68.3205070   5.9882660  68.6278770  60.0750680   2.4889820
  67.9727610  59.8062320   1.8449520  69.4656720  59.9655160   2.0391800
  69.6654700  60.4603250   7.0293160  70.0327740  60.3730650   7.9089180
  69.0965520  59.6969800   6.9300020  69.2170700  57.3712340  10.9351580
  68.3226750  57.3379100  11.2745290  69.7568250  57.5699130  11.7002830
  69.7210410  51.6460670   5.2834800  70.3686600  51.0958050   4.8429960
  70.1412250  51.9003820   6.1050610  69.4742410  51.8016340   8.0260120
  69.1257230  52.2580160   8.7918300  69.1430110  50.9073470   8.1082550
  71.0806780  64.9735940  12.1913310  71.0376410  64.6028850  13.0727770
  71.2117790  65.9113510  12.3315130  74.7812810  66.5295530   7.7923030
  74.5404170  66.7970090   6.9053550  75.7215450  66.7001260   7.8473890
  70.1463050  51.3292540  11.3010890  70.6946040  51.1480590  10.5377000
  70.2118360  50.5386650  11.8367200  70.9194810  67.9198190   9.3111090
  70.3255130  67.7882890  10.0501130  70.9118650  67.0836330   8.8453190
  70.5507040  65.2856570   8.2619130  69.8241100  64.6661860   8.1945080
  70.6116190  65.6797180   7.3917210  74.1552140  67.5001570   5.0468540
  74.6717160  66.8888930   4.5216800  74.8049520  68.0030350   5.5379550
  74.1483610  51.9770910  13.0047600  73.8667880  52.4804510  12.2408420
  74.5303310  51.1792660  12.6389730  71.8041090  42.7272300  80.5765290
  70.9725970  42.4721010  80.9761800  72.4122070  42.7983070  81.3123210
  71.7842350  46.7612390  80.7723310  72.0870390  45.8710130  80.5933530
  72.5285940  47.3182610  80.5445560  70.2133040  37.6874190  74.3607680
  69.3249740  38.0290160  74.2587560  70.4974230  37.4874510  73.4688510
  68.1766050  40.2879840  80.2447380  68.7482160  39.5202040  80.2451020
  68.1767590  40.5868600  79.3353990  72.3894430  36.2705690  75.3946060
  72.4961180  37.1709420  75.7014820  71.4786790  36.2223660  75.1040710
  70.0377590  38.1924700  80.6398650  70.7187700  38.4563070  81.2586050
  69.7225640  37.3525570  80.9736660  74.2302160  39.2392060  79.7271240
  74.7380380  39.7373030  80.3676260  74.7615400  38.4627260  79.5510600
  68.2692550  44.6766460  72.8664190  67.8920530  45.1653560  72.1349090
  68.5265620  45.3491740  73.4970720  75.8781480  33.0782850  78.3249700
  76.1856460  32.5229740  77.6085200  74.9482180  33.2127310  78.1422690
  73.8718880  41.6696420  77.8429550  73.4675880  40.9573670  77.3475450
  73.9582000  41.3249660  78.7317590  74.3400580  45.3563980  80.0068760
  74.0428870  44.7509450  79.3276540  75.2900400  45.3941290  79.8958120
  70.5723510  40.5641400  75.3436200  70.4521110  41.2903490  74.7317470
  70.2624400  39.7944310  74.8664110  68.2108880  43.7356540  81.1504840
  68.2889300  43.8705310  80.2060560  68.8250560  43.0272430  81.3432960
  69.4556510  45.4356730  77.5611020  69.0484590  45.5771320  76.7064620
  70.3469520  45.1516890  77.3582230  73.7278170  49.6502510  75.6733690
  73.5520650  48.7338050  75.4601490  72.8733910  50.0089800  75.9131490
  73.0387170  33.9076470  78.7259870  72.5955320  34.6886010  78.3944390
  73.5972160  34.2306360  79.4330810  76.1545990  33.5287170  73.6065700
  75.5300170  33.5247040  74.3319010  76.0676110  32.6618130  73.2101670
  75.0763070  34.4523800  80.5849470  75.3735400  35.3586630  80.5041490
  75.6248630  33.9642580  79.9709040  72.8301390  39.0310040  76.4541120
  72.6042310  38.8147210  77.3587740  72.0493920  39.4638500  76.1087090
  67.7028190  34.2637750  79.3065250  67.4141240  34.8340610  80.0190230
  68.4473950  33.7842200  79.6696480  67.8898420  38.2057870  70.5167970
  67.8073090  39.1488630  70.6582960  67.5381480  38.0632780  69.6380320
  75.6896550  36.9396900  79.5838320  75.6932610  36.4986850  78.7342860
  76.5847670  37.2614230  79.6910140  71.5398930  36.8223390  78.5432530
  71.1998980  37.2998620  79.2999580  70.7776250  36.3688510  78.1833630
  75.7516700  37.9408980  72.5745080  75.8729520  37.8995460  73.5230900
  75.3665210  38.8033130  72.4191810  74.7638200  40.2510120  71.9728380
  74.1955100  39.8028370  71.3464290  75.4727200  40.6102900  71.4393530
  68.8545010  35.7442370  77.4597200  68.5691930  35.3798040  78.2975820
  68.7923870  35.0122830  76.8460340  72.3085680  44.2468310  74.2454790
  71.5347940  43.7065930  74.0853510  73.0380310  43.7274920  73.9072550
  72.3523080  43.9148690  77.8833600  72.8701750  43.1116950  77.8290490
  71.9007100  43.8527830  78.7250430  76.2083270  45.2628500  75.9276820
  76.8954400  45.8097710  76.3084410  75.4215690  45.8069230  75.9626430
  68.3475670  40.8801320  71.4193900  69.2170520  41.1626120  71.7029820
  67.8565990  41.6937190  71.3042710  75.5110480  42.2674530  75.5402180
  75.9673260  43.0779780  75.7662370  75.1598690  41.9497670  76.3720670
  71.4122260  32.6112180  76.0124700  71.2836890  32.6030080  76.9609620
  70.5884280  32.9495270  75.6615710  68.7146920  50.0928700  71.9855530
  69.0744560  50.6918040  71.3312800  68.5739260  50.6388590  72.7590560
  74.7315540  47.4759900  72.8029200  74.7225640  48.2089590  72.1873710
  73.8113900  47.2291480  72.8956160  70.3322180  42.6974790  73.5475960
  69.7250130  43.4373690  73.5571260  70.8071530  42.7874150  72.7214160
  75.2401030  38.0968500  75.4478290  74.5317180  38.5654840  75.8891900
  75.5245510  37.4390510  76.0823480  76.3593250  50.0574460  76.1602060
  76.6134750  50.0195850  75.2381430  75.4105730  49.9307790  76.1530310
  73.4436050  36.4053580  72.8229000  74.2926580  36.8423730  72.7569190
  73.0767320  36.7173840  73.6501060  72.3427470  42.6585940  71.2964530
  73.1090740  42.5467300  71.8589960  72.4202160  41.9623910  70.6441300
  71.0374230  40.0911010  71.9797420  71.1177820  39.1438520  72.0914820
  71.9293980  40.4217890  72.0858080  71.8388940  50.2406400  79.0831960
  72.5751420  49.6921860  79.3540530  72.2229860  51.1062410  78.9437950
  68.7234420  46.3079970  74.9573470  67.7974200  46.5501110  74.9478880
  69.1890850  47.1354230  74.8358220  74.9491250  49.4136710  70.9057530
  75.7419860  49.7025540  70.4539320  74.4295600  48.9828880  70.2270010
  75.4668650  44.6340120  70.7699880  75.3619290  44.0192470  71.4961260
  75.2992870  44.1106010  69.9862890  74.3746500  42.6551070  73.2707170
  74.7962920  42.4890940  74.1138560  74.4997340  41.8451300  72.7762310
  73.2705400  38.7284300  70.2165330  73.0694460  37.8651660  70.5778670
  73.0997450  38.6417660  69.2786930  72.0688200  35.8284920  70.2043210
  72.3714100  35.8352350  69.2962360  72.8082790  35.4782780  70.7010870
  75.2873130  34.7719540  71.1899410  74.9395130  34.0943530  70.6101860
  75.4885900  34.3109050  72.0042800  71.0918330  45.1327340  71.0373010
  71.5293200  45.6757010  71.6930590  71.5766060  44.3074290  71.0469350
  68.3064130  47.9216370  78.4893270  68.6367140  47.0537430  78.2571910
  68.7355130  48.1274890  79.3198230  72.9026050  46.2525380  76.1495240
  72.6021590  46.1290350  77.0499150  72.7963540  45.3933970  75.7410970
  68.6278770  41.3007190  77.5863780  67.9727610  41.0318830  76.9423480
  69.4656720  41.1911670  77.1365760  67.8416850  38.5106120  73.5289110
  66.9380930  38.7736320  73.3540770  68.3257470  38.7817290  72.7489070
  70.3844060  37.5671660  71.4383490  71.0935760  37.1454880  70.9530770
  69.6684000  37.6346890  70.8066840  70.0318220  33.6210990  70.4786140
  70.7546350  34.1619930  70.7967360  70.3042740  33.3474410  69.6027680
  69.7210410  32.8717180  80.3808760  70.3686600  32.3214560  79.9403920
  70.1412250  33.1260330  81.2024570  74.1552140  48.7258080  80.1442500
  74.6717160  48.1145440  79.6190760  74.8049520  49.2286860  80.6353510
  68.8337040  49.8287470  76.5689850  68.6659080  49.1958150  77.2671740
  67.9671550  50.0346870  76.2184040  69.4565060  33.6604250  74.0721710
  70.2144420  33.7733130  73.4985740  68.9942230  34.4973450  74.0265140
  75.9978870  35.7743520  77.0624020  75.1853380  35.4000410  76.7219900
  76.5020510  35.0188600  77.3645210  70.4399740  48.5220700  74.0139990
  69.9147360  48.9028730  73.3101950  70.3644320  49.1471470  74.7349700
  71.8290210  34.1868300  72.6123680  72.3582970  33.3998100  72.4831630
  72.4618530  34.8659490  72.8459210  74.0228050  33.9243440  75.6669070
  73.3930790  33.2230750  75.8339200  73.4833190  34.6847570  75.4502230
  73.0392710  50.4703080  72.8889240  73.7711530  50.1862360  72.3413130
  73.2986380  50.2316360  73.7788620  72.2007500  46.5867810  72.8935570
  71.5716380  47.0552910  73.4421400  72.3155330  45.7417030  73.3281760
  71.8041090  42.7272300  61.8021800  70.9725970  42.4721010  62.2018310
  72.4122070  42.7983070  62.5379720  71.7842350  46.7612390  61.9979820
  72.0870390  45.8710130  61.8190040  72.5285940  47.3182610  61.7702070
  70.2133040  37.6874190  55.5864190  69.3249740  38.0290160  55.4844070
  70.4974230  37.4874510  54.6945020  68.1766050  40.2879840  61.4703890
  68.7482160  39.5202040  61.4707530  68.1767590  40.5868600  60.5610500
  69.4190920  35.6964200  63.2572820  69.2393760  34.7989950  63.5375580
  69.0171000  36.2436070  63.9319770  72.3894430  36.2705690  56.6202570
  72.4961180  37.1709420  56.9271330  71.4786790  36.2223660  56.3297220
  70.0377590  38.1924700  61.8655160  70.7187700  38.4563070  62.4842560
  69.7225640  37.3525570  62.1993170  74.2302160  39.2392060  60.9527750
  74.7380380  39.7373030  61.5932770  74.7615400  38.4627260  60.7767110
  72.5138260  33.8790620  65.2191170  72.5156700  34.3963010  64.4137070
  71.6842570  33.4020800  65.1961100  73.7641110  43.5185800  63.3964670
  73.4310490  44.1454720  64.0385740  73.9407790  44.0447680  62.6166340
  72.1953590  35.5900580  63.2261620  72.5370400  36.4342630  62.9315490
  71.2569400  35.7384320  63.3426960  72.9760210  45.4866600  65.2113850
  73.5934210  46.1617680  64.9298300  72.1153330  45.8954580  65.1201350
  68.2692550  44.6766460  54.0920700  67.8920530  45.1653560  53.3605600
  68.5265620  45.3491740  54.7227230  75.8781480  33.0782850  59.5506210
  76.1856460  32.5229740  58.8341710  74.9482180  33.2127310  59.3679200
  73.8718880  41.6696420  59.0686060  73.4675880  40.9573670  58.5731960
  73.9582000  41.3249660  59.9574100  74.3400580  45.3563980  61.2325270
  74.0428870  44.7509450  60.5533050  75.2900400  45.3941290  61.1214630
  72.5847500  38.4439630  62.8485100  73.1362090  38.5534970  62.0738350
  73.0991010  38.8177230  63.5640330  73.4319010  45.0945670  67.8833070
  72.5347540  45.3185640  68.1306470  73.4571880  45.2180610  66.9344470
  72.2590230  41.9658990  66.4590440  72.1198000  42.8381790  66.8277840
  71.3771590  41.6231800  66.3138380  74.0570580  47.9080690  68.6675590
  74.0286010  48.3123640  67.8004020  73.8935550  46.9791050  68.5047190
  70.5723510  40.5641400  56.5692710  70.4521110  41.2903490  55.9573980
  70.2624400  39.7944310  56.0920620  68.2108880  43.7356540  62.3761350
  68.2889300  43.8705310  61.4317070  68.8250560  43.0272430  62.5689470
  69.4556510  45.4356730  58.7867530  69.0484590  45.5771320  57.9321130
  70.3469520  45.1516890  58.5838740  73.7278170  49.6502510  56.8990200
  73.5520650  48.7338050  56.6858000  72.8733910  50.0089800  57.1388000
  68.2668400  44.7770710  64.9155810  68.4299440  44.3076070  64.0975180
  68.7320850  44.2694270  65.5804650  73.0387170  33.9076470  59.9516380
  72.5955320  34.6886010  59.6200900  73.5972160  34.2306360  60.6587320
  76.1545990  33.5287170  54.8322210  75.5300170  33.5247040  55.5575520
  76.0676110  32.6618130  54.4358180  75.0763070  34.4523800  61.8105980
  75.3735400  35.3586630  61.7298000  75.6248630  33.9642580  61.1965550
  72.8301390  39.0310040  57.6797630  72.6042310  38.8147210  58.5844250
  72.0493920  39.4638500  57.3343600  75.2700600  39.9295620  68.3457900
  75.1744200  38.9890350  68.1958300  76.1132580  40.1510690  67.9505970
  70.4011140  36.3409290  66.4991680  70.0074530  37.1884500  66.7064460
  69.7129540  35.7035660  66.6900320  67.7028190  34.2637750  60.5321760
  67.4141240  34.8340610  61.2446740  68.4473950  33.7842200  60.8952990
  67.8898420  38.2057870  51.7424480  67.8073090  39.1488630  51.8839470
  67.5381480  38.0632780  50.8636830  75.6896550  36.9396900  60.8094830
  75.6932610  36.4986850  59.9599370  76.5847670  37.2614230  60.9166650
  71.5398930  36.8223390  59.7689040  71.1998980  37.2998620  60.5256090
  70.7776250  36.3688510  59.4090140  75.7516700  37.9408980  53.8001590
  75.8729520  37.8995460  54.7487410  75.3665210  38.8033130  53.6448320
  74.7638200  40.2510120  53.1984890  74.1955100  39.8028370  52.5720800
  75.4727200  40.6102900  52.6650040  69.8407380  44.1522140  67.0751620
  69.4562170  43.5115810  67.6734580  70.1519570  44.8558260  67.6446350
  75.9904520  40.9998680  62.5560240  76.3574650  40.5257250  63.3021580
  75.8009580  41.8740250  62.8968580  68.8545010  35.7442370  58.6853710
  68.5691930  35.3798040  59.5232330  68.7923870  35.0122830  58.0716850
  73.7803890  40.0407320  64.8744450  73.4760960  40.9199300  65.0994810
  74.7350350  40.1007110  64.9101890  72.3085680  44.2468310  55.4711300
  71.5347940  43.7065930  55.3110020  73.0380310  43.7274920  55.1329060
  72.3523080  43.9148690  59.1090110  72.8701750  43.1116950  59.0547000
  71.9007100  43.8527830  59.9506940  69.8367620  40.8810060  66.0215810
  69.4782560  41.5463910  66.6089150  69.5422180  40.0493610  66.3928430
  73.0380740  41.3394300  68.9055360  72.7380880  41.4851480  68.0083180
  73.8091980  40.7799590  68.8128750  76.2083270  45.2628500  57.1533330
  76.8954400  45.8097710  57.5340920  75.4215690  45.8069230  57.1882940
  68.3475670  40.8801320  52.6450410  69.2170520  41.1626120  52.9286330
  67.8565990  41.6937190  52.5299220  75.5110480  42.2674530  56.7658690
  75.9673260  43.0779780  56.9918880  75.1598690  41.9497670  57.5977180
  71.4122260  32.6112180  57.2381210  71.2836890  32.6030080  58.1866130
  70.5884280  32.9495270  56.8872220  68.7146920  50.0928700  53.2112040
  69.0744560  50.6918040  52.5569310  68.5739260  50.6388590  53.9847070
  68.4116190  34.3703300  66.6987910  67.6974710  34.5700220  67.3040520
  68.8311230  33.5942870  67.0702710  68.6988780  48.3583560  67.6854440
  68.8079900  47.4178300  67.5449830  68.0469340  48.6238310  67.0368170
  76.6901370  46.6299450  69.0852560  76.3698240  45.9108690  69.6298250
  76.0159730  47.3054520  69.1588620  74.7315540  47.4759900  54.0285710
  74.7225640  48.2089590  53.4130220  73.8113900  47.2291480  54.1212670
  70.3322180  42.6974790  54.7732470  69.7250130  43.4373690  54.7827770
  70.8071530  42.7874150  53.9470670  75.2401030  38.0968500  56.6734800
  74.5317180  38.5654840  57.1148410  75.5245510  37.4390510  57.3079990
  76.3593250  50.0574460  57.3858570  76.6134750  50.0195850  56.4637940
  75.4105730  49.9307790  57.3786820  73.4436050  36.4053580  54.0485510
  74.2926580  36.8423730  53.9825700  73.0767320  36.7173840  54.8757570
  72.3427470  42.6585940  52.5221040  73.1090740  42.5467300  53.0846470
  72.4202160  41.9623910  51.8697810  71.0374230  40.0911010  53.2053930
  71.1177820  39.1438520  53.3171330  71.9293980  40.4217890  53.3114590
  71.8388940  50.2406400  60.3088470  72.5751420  49.6921860  60.5797040
  72.2229860  51.1062410  60.1694460  68.7234420  46.3079970  56.1829980
  67.7974200  46.5501110  56.1735390  69.1890850  47.1354230  56.0614730
  70.8447220  49.4252470  69.4974050  71.6459950  49.7464520  69.9109450
  70.3299040  49.0648050  70.2193960  74.9491250  49.4136710  52.1314040
  75.7419860  49.7025540  51.6795830  74.4295600  48.9828880  51.4526520
  68.5645030  41.9125930  68.4410100  69.0684050  41.3333210  69.0126330
  67.8252450  42.1966160  68.9786470  75.4668650  44.6340120  51.9956390
  75.3619290  44.0192470  52.7217770  75.2992870  44.1106010  51.2119400
  75.6182970  43.3196920  67.9745620  74.8528640  43.8881920  67.8900290
  75.7998930  43.0273130  67.0813850  70.5968110  40.0555520  69.3360170
  70.6373450  39.7569390  70.2445400  71.4513610  40.4563130  69.1767690
  74.3746500  42.6551070  54.4963680  74.7962920  42.4890940  55.3395070
  74.4997340  41.8451300  54.0018820  72.5373920  38.6347620  67.3034660
  72.0070380  38.1438570  66.6758000  73.2061990  39.0631820  66.7692590
  73.0246220  35.6009990  67.3831950  72.9303090  34.9830740  66.6582820
  72.4443610  36.3276280  67.1561860  75.7907660  34.1583230  64.4159340
  75.3424960  34.1807490  63.5704890  75.1572860  33.7602250  65.0129640
  76.1967210  43.0537560  65.0371780  76.6155320  43.8970290  64.8648020
  75.2775840  43.1909600  64.8078560  73.2705400  38.7284300  51.4421840
  73.0694460  37.8651660  51.8035180  73.0997450  38.6417660  50.5043440
  74.0474630  49.3590570  66.1529510  73.5095720  50.0836630  65.8338210
  74.3008590  48.8820910  65.3626850  75.2999880  37.3275090  67.6785440
  75.8899570  37.0190940  68.3663260  74.4820120  36.8554840  67.8345340
  72.0688200  35.8284920  51.4299720  72.3714100  35.8352350  50.5218870
  72.8082790  35.4782780  51.9267380  76.9036840  50.5941780  66.4116160
  76.8295540  51.4976920  66.7188530  76.0015680  50.2753680  66.3838230
  75.2873130  34.7719540  52.4155920  74.9395130  34.0943530  51.8358370
  75.4885900  34.3109050  53.2299310  71.0918330  45.1327340  52.2629520
  71.5293200  45.6757010  52.9187100  71.5766060  44.3074290  52.2725860
  68.3064130  47.9216370  59.7149780  68.6367140  47.0537430  59.4828420
  68.7355130  48.1274890  60.5454740  72.9026050  46.2525380  57.3751750
  72.6021590  46.1290350  58.2755660  72.7963540  45.3933970  56.9667480
  68.7954340  48.7886960  62.4531410  68.3585330  48.9687760  63.2855560
  69.3632020  49.5461580  62.3113130  68.6278770  41.3007190  58.8120290
  67.9727610  41.0318830  58.1679990  69.4656720  41.1911670  58.3622270
  69.6654700  41.6859760  63.3523630  70.0327740  41.5987160  64.2319650
  69.0965520  40.9226310  63.2530490  69.2170700  38.5968850  67.2582050
  68.3226750  38.5635610  67.5975760  69.7568250  38.7955640  68.0233300
  67.8416850  38.5106120  54.7545620  66.9380930  38.7736320  54.5797280
  68.3257470  38.7817290  53.9745580  70.3844060  37.5671660  52.6640000
  71.0935760  37.1454880  52.1787280  69.6684000  37.6346890  52.0323350
  70.0318220  33.6210990  51.7042650  70.7546350  34.1619930  52.0223870
  70.3042740  33.3474410  50.8284190  69.7210410  32.8717180  61.6065270
  70.3686600  32.3214560  61.1660430  70.1412250  33.1260330  62.4281080
  69.4742410  33.0272850  64.3490590  69.1257230  33.4836670  65.1148770
  69.1430110  32.1329980  64.4313020  71.0806780  46.1992450  68.5143780
  71.0376410  45.8285360  69.3958240  71.2117790  47.1370020  68.6545600
  74.7812810  47.7552040  64.1153500  74.5404170  48.0226600  63.2284020
  75.7215450  47.9257770  64.1704360  70.1463050  32.5549050  67.6241360
  70.6946040  32.3737100  66.8607470  70.2118360  31.7643160  68.1597670
  70.9194810  49.1454700  65.6341560  70.3255130  49.0139400  66.3731600
  70.9118650  48.3092840  65.1683660  70.5507040  46.5113080  64.5849600
  69.8241100  45.8918370  64.5175550  70.6116190  46.9053690  63.7147680
  74.1552140  48.7258080  61.3699010  74.6717160  48.1145440  60.8447270
  74.8049520  49.2286860  61.8610020  68.8337040  49.8287470  57.7946360
  68.6659080  49.1958150  58.4928250  67.9671550  50.0346870  57.4440550
  69.4565060  33.6604250  55.2978220  70.2144420  33.7733130  54.7242250
  68.9942230  34.4973450  55.2521650  75.9978870  35.7743520  58.2880530
  75.1853380  35.4000410  57.9476410  76.5020510  35.0188600  58.5901720
  70.4399740  48.5220700  55.2396500  69.9147360  48.9028730  54.5358460
  70.3644320  49.1471470  55.9606210  71.8290210  34.1868300  53.8380190
  72.3582970  33.3998100  53.7088140  72.4618530  34.8659490  54.0715720
  74.0228050  33.9243440  56.8925580  73.3930790  33.2230750  57.0595710
  73.4833190  34.6847570  56.6758740  74.1483610  33.2027420  69.3278070
  73.8667880  33.7061020  68.5638890  74.5303310  32.4049170  68.9620200
  73.0392710  50.4703080  54.1145750  73.7711530  50.1862360  53.5669640
  73.2986380  50.2316360  55.0045130  72.2007500  46.5867810  54.1192080
  71.5716380  47.0552910  54.6677910  72.3155330  45.7417030  54.5538270
  71.8041090  42.7272300  43.0278310  70.9725970  42.4721010  43.4274820
  72.4122070  42.7983070  43.7636230  71.7842350  46.7612390  43.2236330
  72.0870390  45.8710130  43.0446550  72.5285940  47.3182610  42.9958580
  70.2133040  37.6874190  36.8120700  69.3249740  38.0290160  36.7100580
  70.4974230  37.4874510  35.9201530  68.1766050  40.2879840  42.6960400
  68.7482160  39.5202040  42.6964040  68.1767590  40.5868600  41.7867010
  69.4190920  35.6964200  44.4829330  69.2393760  34.7989950  44.7632090
  69.0171000  36.2436070  45.1576280  72.3894430  36.2705690  37.8459080
  72.4961180  37.1709420  38.1527840  71.4786790  36.2223660  37.5553730
  70.0377590  38.1924700  43.0911670  70.7187700  38.4563070  43.7099070
  69.7225640  37.3525570  43.4249680  74.2302160  39.2392060  42.1784260
  74.7380380  39.7373030  42.8189280  74.7615400  38.4627260  42.0023620
  72.5138260  33.8790620  46.4447680  72.5156700  34.3963010  45.6393580
  71.6842570  33.4020800  46.4217610  73.7641110  43.5185800  44.6221180
  73.4310490  44.1454720  45.2642250  73.9407790  44.0447680  43.8422850
  72.1953590  35.5900580  44.4518130  72.5370400  36.4342630  44.1572000
  71.2569400  35.7384320  44.5683470  72.9760210  45.4866600  46.4370360
  73.5934210  46.1617680  46.1554810  72.1153330  45.8954580  46.3457860
  68.2692550  44.6766460  35.3177210  67.8920530  45.1653560  34.5862110
  68.5265620  45.3491740  35.9483740  75.8781480  33.0782850  40.7762720
  76.1856460  32.5229740  40.0598220  74.9482180  33.2127310  40.5935710
  73.8718880  41.6696420  40.2942570  73.4675880  40.9573670  39.7988470
  73.9582000  41.3249660  41.1830610  74.3400580  45.3563980  42.4581780
  74.0428870  44.7509450  41.7789560  75.2900400  45.3941290  42.3471140
  72.5847500  38.4439630  44.0741610  73.1362090  38.5534970  43.2994860
  73.0991010  38.8177230  44.7896840  73.4319010  45.0945670  49.1089580
  72.5347540  45.3185640  49.3562980  73.4571880  45.2180610  48.1600980
  72.2590230  41.9658990  47.6846950  72.1198000  42.8381790  48.0534350
  71.3771590  41.6231800  47.5394890  74.0570580  47.9080690  49.8932100
  74.0286010  48.3123640  49.0260530  73.8935550  46.9791050  49.7303700
  70.5723510  40.5641400  37.7949220  70.4521110  41.2903490  37.1830490
  70.2624400  39.7944310  37.3177130  68.2108880  43.7356540  43.6017860
  68.2889300  43.8705310  42.6573580  68.8250560  43.0272430  43.7945980
  69.4556510  45.4356730  40.0124040  69.0484590  45.5771320  39.1577640
  70.3469520  45.1516890  39.8095250  73.7278170  49.6502510  38.1246710
  73.5520650  48.7338050  37.9114510  72.8733910  50.0089800  38.3644510
  68.2668400  44.7770710  46.1412320  68.4299440  44.3076070  45.3231690
  68.7320850  44.2694270  46.8061160  73.0387170  33.9076470  41.1772890
  72.5955320  34.6886010  40.8457410  73.5972160  34.2306360  41.8843830
  76.1545990  33.5287170  36.0578720  75.5300170  33.5247040  36.7832030
  76.0676110  32.6618130  35.6614690  75.0763070  34.4523800  43.0362490
  75.3735400  35.3586630  42.9554510  75.6248630  33.9642580  42.4222060
  72.8301390  39.0310040  38.9054140  72.6042310  38.8147210  39.8100760
  72.0493920  39.4638500  38.5600110  75.2700600  39.9295620  49.5714410
  75.1744200  38.9890350  49.4214810  76.1132580  40.1510690  49.1762480
  70.4011140  36.3409290  47.7248190  70.0074530  37.1884500  47.9320970
  69.7129540  35.7035660  47.9156830  67.7028190  34.2637750  41.7578270
  67.4141240  34.8340610  42.4703250  68.4473950  33.7842200  42.1209500
  67.8898420  38.2057870  32.9680990  67.8073090  39.1488630  33.1095980
  67.5381480  38.0632780  32.0893340  75.6896550  36.9396900  42.0351340
  75.6932610  36.4986850  41.1855880  76.5847670  37.2614230  42.1423160
  71.5398930  36.8223390  40.9945550  71.1998980  37.2998620  41.7512600
  70.7776250  36.3688510  40.6346650  75.7516700  37.9408980  35.0258100
  75.8729520  37.8995460  35.9743920  75.3665210  38.8033130  34.8704830
  74.7638200  40.2510120  34.4241400  74.1955100  39.8028370  33.7977310
  75.4727200  40.6102900  33.8906550  69.8407380  44.1522140  48.3008130
  69.4562170  43.5115810  48.8991090  70.1519570  44.8558260  48.8702860
  75.9904520  40.9998680  43.7816750  76.3574650  40.5257250  44.5278090
  75.8009580  41.8740250  44.1225090  68.8545010  35.7442370  39.9110220
  68.5691930  35.3798040  40.7488840  68.7923870  35.0122830  39.2973360
  73.7803890  40.0407320  46.1000960  73.4760960  40.9199300  46.3251320
  74.7350350  40.1007110  46.1358400  72.3085680  44.2468310  36.6967810
  71.5347940  43.7065930  36.5366530  73.0380310  43.7274920  36.3585570
  72.3523080  43.9148690  40.3346620  72.8701750  43.1116950  40.2803510
  71.9007100  43.8527830  41.1763450  69.8367620  40.8810060  47.2472320
  69.4782560  41.5463910  47.8345660  69.5422180  40.0493610  47.6184940
  73.0380740  41.3394300  50.1311870  72.7380880  41.4851480  49.2339690
  73.8091980  40.7799590  50.0385260  76.2083270  45.2628500  38.3789840
  76.8954400  45.8097710  38.7597430  75.4215690  45.8069230  38.4139450
  68.3475670  40.8801320  33.8706920  69.2170520  41.1626120  34.1542840
  67.8565990  41.6937190  33.7555730  75.5110480  42.2674530  37.9915200
  75.9673260  43.0779780  38.2175390  75.1598690  41.9497670  38.8233690
  71.4122260  32.6112180  38.4637720  71.2836890  32.6030080  39.4122640
  70.5884280  32.9495270  38.1128730  68.7146920  50.0928700  34.4368550
  69.0744560  50.6918040  33.7825820  68.5739260  50.6388590  35.2103580
  68.4116190  34.3703300  47.9244420  67.6974710  34.5700220  48.5297030
  68.8311230  33.5942870  48.2959220  68.6988780  48.3583560  48.9110950
  68.8079900  47.4178300  48.7706340  68.0469340  48.6238310  48.2624680
  76.6901370  46.6299450  50.3109070  76.3698240  45.9108690  50.8554760
  76.0159730  47.3054520  50.3845130  74.7315540  47.4759900  35.2542220
  74.7225640  48.2089590  34.6386730  73.8113900  47.2291480  35.3469180
  70.3322180  42.6974790  35.9988980  69.7250130  43.4373690  36.0084280
  70.8071530  42.7874150  35.1727180  75.2401030  38.0968500  37.8991310
  74.5317180  38.5654840  38.3404920  75.5245510  37.4390510  38.5336500
  76.3593250  50.0574460  38.6115080  76.6134750  50.0195850  37.6894450
  75.4105730  49.9307790  38.6043330  73.4436050  36.4053580  35.2742020
  74.2926580  36.8423730  35.2082210  73.0767320  36.7173840  36.1014080
  72.3427470  42.6585940  33.7477550  73.1090740  42.5467300  34.3102980
  72.4202160  41.9623910  33.0954320  71.0374230  40.0911010  34.4310440
  71.1177820  39.1438520  34.5427840  71.9293980  40.4217890  34.5371100
  71.8388940  50.2406400  41.5344980  72.5751420  49.6921860  41.8053550
  72.2229860  51.1062410  41.3950970  68.7234420  46.3079970  37.4086490
  67.7974200  46.5501110  37.3991900  69.1890850  47.1354230  37.2871240
  70.8447220  49.4252470  50.7230560  71.6459950  49.7464520  51.1365960
  70.3299040  49.0648050  51.4450470  74.9491250  49.4136710  33.3570550
  75.7419860  49.7025540  32.9052340  74.4295600  48.9828880  32.6783030
  68.5645030  41.9125930  49.6666610  69.0684050  41.3333210  50.2382840
  67.8252450  42.1966160  50.2042980  75.4668650  44.6340120  33.2212900
  75.3619290  44.0192470  33.9474280  75.2992870  44.1106010  32.4375910
  75.6182970  43.3196920  49.2002130  74.8528640  43.8881920  49.1156800
  75.7998930  43.0273130  48.3070360  70.5968110  40.0555520  50.5616680
  70.6373450  39.7569390  51.4701910  71.4513610  40.4563130  50.4024200
  74.3746500  42.6551070  35.7220190  74.7962920  42.4890940  36.5651580
  74.4997340  41.8451300  35.2275330  72.5373920  38.6347620  48.5291170
  72.0070380  38.1438570  47.9014510  73.2061990  39.0631820  47.9949100
  73.0246220  35.6009990  48.6088460  72.9303090  34.9830740  47.8839330
  72.4443610  36.3276280  48.3818370  75.7907660  34.1583230  45.6415850
  75.3424960  34.1807490  44.7961400  75.1572860  33.7602250  46.2386150
  76.1967210  43.0537560  46.2628290  76.6155320  43.8970290  46.0904530
  75.2775840  43.1909600  46.0335070  73.2705400  38.7284300  32.6678350
  73.0694460  37.8651660  33.0291690  73.0997450  38.6417660  31.7299950
  74.0474630  49.3590570  47.3786020  73.5095720  50.0836630  47.0594720
  74.3008590  48.8820910  46.5883360  75.2999880  37.3275090  48.9041950
  75.8899570  37.0190940  49.5919770  74.4820120  36.8554840  49.0601850
  72.0688200  35.8284920  32.6556230  72.3714100  35.8352350  31.7475380
  72.8082790  35.4782780  33.1523890  76.9036840  50.5941780  47.6372670
  76.8295540  51.4976920  47.9445040  76.0015680  50.2753680  47.6094740
  75.2873130  34.7719540  33.6412430  74.9395130  34.0943530  33.0614880
  75.4885900  34.3109050  34.4555820  71.0918330  45.1327340  33.4886030
  71.5293200  45.6757010  34.1443610  71.5766060  44.3074290  33.4982370
  68.3064130  47.9216370  40.9406290  68.6367140  47.0537430  40.7084930
  68.7355130  48.1274890  41.7711250  72.9026050  46.2525380  38.6008260
  72.6021590  46.1290350  39.5012170  72.7963540  45.3933970  38.1923990
  68.7954340  48.7886960  43.6787920  68.3585330  48.9687760  44.5112070
  69.3632020  49.5461580  43.5369640  68.6278770  41.3007190  40.0376800
  67.9727610  41.0318830  39.3936500  69.4656720  41.1911670  39.5878780
  69.6654700  41.6859760  44.5780140  70.0327740  41.5987160  45.4576160
  69.0965520  40.9226310  44.4787000  69.2170700  38.5968850  48.4838560
  68.3226750  38.5635610  48.8232270  69.7568250  38.7955640  49.2489810
  67.8416850  38.5106120  35.9802130  66.9380930  38.7736320  35.8053790
  68.3257470  38.7817290  35.2002090  70.3844060  37.5671660  33.8896510
  71.0935760  37.1454880  33.4043790  69.6684000  37.6346890  33.2579860
  70.0318220  33.6210990  32.9299160  70.7546350  34.1619930  33.2480380
  70.3042740  33.3474410  32.0540700  69.7210410  32.8717180  42.8321780
  70.3686600  32.3214560  42.3916940  70.1412250  33.1260330  43.6537590
  69.4742410  33.0272850  45.5747100  69.1257230  33.4836670  46.3405280
  69.1430110  32.1329980  45.6569530  71.0806780  46.1992450  49.7400290
  71.0376410  45.8285360  50.6214750  71.2117790  47.1370020  49.8802110
  74.7812810  47.7552040  45.3410010  74.5404170  48.0226600  44.4540530
  75.7215450  47.9257770  45.3960870  70.1463050  32.5549050  48.8497870
  70.6946040  32.3737100  48.0863980  70.2118360  31.7643160  49.3854180
  70.9194810  49.1454700  46.8598070  70.3255130  49.0139400  47.5988110
  70.9118650  48.3092840  46.3940170  70.5507040  46.5113080  45.8106110
  69.8241100  45.8918370  45.7432060  70.6116190  46.9053690  44.9404190
  74.1552140  48.7258080  42.5955520  74.6717160  48.1145440  42.0703780
  74.8049520  49.2286860  43.0866530  68.8337040  49.8287470  39.0202870
  68.6659080  49.1958150  39.7184760  67.9671550  50.0346870  38.6697060
  69.4565060  33.6604250  36.5234730  70.2144420  33.7733130  35.9498760
  68.9942230  34.4973450  36.4778160  75.9978870  35.7743520  39.5137040
  75.1853380  35.4000410  39.1732920  76.5020510  35.0188600  39.8158230
  70.4399740  48.5220700  36.4653010  69.9147360  48.9028730  35.7614970
  70.3644320  49.1471470  37.1862720  71.8290210  34.1868300  35.0636700
  72.3582970  33.3998100  34.9344650  72.4618530  34.8659490  35.2972230
  74.0228050  33.9243440  38.1182090  73.3930790  33.2230750  38.2852220
  73.4833190  34.6847570  37.9015250  74.1483610  33.2027420  50.5534580
  73.8667880  33.7061020  49.7895400  74.5303310  32.4049170  50.1876710
  73.0392710  50.4703080  35.3402260  73.7711530  50.1862360  34.7926150
  73.2986380  50.2316360  36.2301640  72.2007500  46.5867810  35.3448590
  71.5716380  47.0552910  35.8934420  72.3155330  45.7417030  35.7794780
  71.8041090  42.7272300  24.2534820  70.9725970  42.4721010  24.6531330
  72.4122070  42.7983070  24.9892740  71.7842350  46.7612390  24.4492840
  72.0870390  45.8710130  24.2703060  72.5285940  47.3182610  24.2215090
  70.2133040  37.6874190  18.0377210  69.3249740  38.0290160  17.9357090
  70.4974230  37.4874510  17.1458040  68.1766050  40.2879840  23.9216910
  68.7482160  39.5202040  23.9220550  68.1767590  40.5868600  23.0123520
  69.4190920  35.6964200  25.7085840  69.2393760  34.7989950  25.9888600
  69.0171000  36.2436070  26.3832790  72.3894430  36.2705690  19.0715590
  72.4961180  37.1709420  19.3784350  71.4786790  36.2223660  18.7810240
  70.0377590  38.1924700  24.3168180  70.7187700  38.4563070  24.9355580
  69.7225640  37.3525570  24.6506190  74.2302160  39.2392060  23.4040770
  74.7380380  39.7373030  24.0445790  74.7615400  38.4627260  23.2280130
  72.5138260  33.8790620  27.6704190  72.5156700  34.3963010  26.8650090
  71.6842570  33.4020800  27.6474120  73.7641110  43.5185800  25.8477690
  73.4310490  44.1454720  26.4898760  73.9407790  44.0447680  25.0679360
  72.1953590  35.5900580  25.6774640  72.5370400  36.4342630  25.3828510
  71.2569400  35.7384320  25.7939980  72.9760210  45.4866600  27.6626870
  73.5934210  46.1617680  27.3811320  72.1153330  45.8954580  27.5714370
  68.2692550  44.6766460  16.5433720  67.8920530  45.1653560  15.8118620
  68.5265620  45.3491740  17.1740250  75.8781480  33.0782850  22.0019230
  76.1856460  32.5229740  21.2854730  74.9482180  33.2127310  21.8192220
  73.8718880  41.6696420  21.5199080  73.4675880  40.9573670  21.0244980
  73.9582000  41.3249660  22.4087120  74.3400580  45.3563980  23.6838290
  74.0428870  44.7509450  23.0046070  75.2900400  45.3941290  23.5727650
  72.5847500  38.4439630  25.2998120  73.1362090  38.5534970  24.5251370
  73.0991010  38.8177230  26.0153350  73.4319010  45.0945670  30.3346090
  72.5347540  45.3185640  30.5819490  73.4571880  45.2180610  29.3857490
  72.2590230  41.9658990  28.9103460  72.1198000  42.8381790  29.2790860
  71.3771590  41.6231800  28.7651400  74.0570580  47.9080690  31.1188610
  74.0286010  48.3123640  30.2517040  73.8935550  46.9791050  30.9560210
  70.5723510  40.5641400  19.0205730  70.4521110  41.2903490  18.4087000
  70.2624400  39.7944310  18.5433640  68.2108880  43.7356540  24.8274370
  68.2889300  43.8705310  23.8830090  68.8250560  43.0272430  25.0202490
  69.4556510  45.4356730  21.2380550  69.0484590  45.5771320  20.3834150
  70.3469520  45.1516890  21.0351760  73.7278170  49.6502510  19.3503220
  73.5520650  48.7338050  19.1371020  72.8733910  50.0089800  19.5901020
  68.2668400  44.7770710  27.3668830  68.4299440  44.3076070  26.5488200
  68.7320850  44.2694270  28.0317670  73.0387170  33.9076470  22.4029400
  72.5955320  34.6886010  22.0713920  73.5972160  34.2306360  23.1100340
  76.1545990  33.5287170  17.2835230  75.5300170  33.5247040  18.0088540
  76.0676110  32.6618130  16.8871200  75.0763070  34.4523800  24.2619000
  75.3735400  35.3586630  24.1811020  75.6248630  33.9642580  23.6478570
  72.8301390  39.0310040  20.1310650  72.6042310  38.8147210  21.0357270
  72.0493920  39.4638500  19.7856620  75.2700600  39.9295620  30.7970920
  75.1744200  38.9890350  30.6471320  76.1132580  40.1510690  30.4018990
  70.4011140  36.3409290  28.9504700  70.0074530  37.1884500  29.1577480
  69.7129540  35.7035660  29.1413340  67.7028190  34.2637750  22.9834780
  67.4141240  34.8340610  23.6959760  68.4473950  33.7842200  23.3466010
  67.8898420  38.2057870  14.1937500  67.8073090  39.1488630  14.3352490
  67.5381480  38.0632780  13.3149850  75.6896550  36.9396900  23.2607850
  75.6932610  36.4986850  22.4112390  76.5847670  37.2614230  23.3679670
  71.5398930  36.8223390  22.2202060  71.1998980  37.2998620  22.9769110
  70.7776250  36.3688510  21.8603160  75.7516700  37.9408980  16.2514610
  75.8729520  37.8995460  17.2000430  75.3665210  38.8033130  16.0961340
  74.7638200  40.2510120  15.6497910  74.1955100  39.8028370  15.0233820
  75.4727200  40.6102900  15.1163060  69.8407380  44.1522140  29.5264640
  69.4562170  43.5115810  30.1247600  70.1519570  44.8558260  30.0959370
  75.9904520  40.9998680  25.0073260  76.3574650  40.5257250  25.7534600
  75.8009580  41.8740250  25.3481600  68.8545010  35.7442370  21.1366730
  68.5691930  35.3798040  21.9745350  68.7923870  35.0122830  20.5229870
  73.7803890  40.0407320  27.3257470  73.4760960  40.9199300  27.5507830
  74.7350350  40.1007110  27.3614910  72.3085680  44.2468310  17.9224320
  71.5347940  43.7065930  17.7623040  73.0380310  43.7274920  17.5842080
  72.3523080  43.9148690  21.5603130  72.8701750  43.1116950  21.5060020
  71.9007100  43.8527830  22.4019960  69.8367620  40.8810060  28.4728830
  69.4782560  41.5463910  29.0602170  69.5422180  40.0493610  28.8441450
  73.0380740  41.3394300  31.3568380  72.7380880  41.4851480  30.4596200
  73.8091980  40.7799590  31.2641770  76.2083270  45.2628500  19.6046350
  76.8954400  45.8097710  19.9853940  75.4215690  45.8069230  19.6395960
  68.3475670  40.8801320  15.0963430  69.2170520  41.1626120  15.3799350
  67.8565990  41.6937190  14.9812240  75.5110480  42.2674530  19.2171710
  75.9673260  43.0779780  19.4431900  75.1598690  41.9497670  20.0490200
  71.4122260  32.6112180  19.6894230  71.2836890  32.6030080  20.6379150
  70.5884280  32.9495270  19.3385240  68.7146920  50.0928700  15.6625060
  69.0744560  50.6918040  15.0082330  68.5739260  50.6388590  16.4360090
  68.4116190  34.3703300  29.1500930  67.6974710  34.5700220  29.7553540
  68.8311230  33.5942870  29.5215730  68.6988780  48.3583560  30.1367460
  68.8079900  47.4178300  29.9962850  68.0469340  48.6238310  29.4881190
  76.6901370  46.6299450  31.5365580  76.3698240  45.9108690  32.0811270
  76.0159730  47.3054520  31.6101640  74.7315540  47.4759900  16.4798730
  74.7225640  48.2089590  15.8643240  73.8113900  47.2291480  16.5725690
  70.3322180  42.6974790  17.2245490  69.7250130  43.4373690  17.2340790
  70.8071530  42.7874150  16.3983690  75.2401030  38.0968500  19.1247820
  74.5317180  38.5654840  19.5661430  75.5245510  37.4390510  19.7593010
  76.3593250  50.0574460  19.8371590  76.6134750  50.0195850  18.9150960
  75.4105730  49.9307790  19.8299840  73.4436050  36.4053580  16.4998530
  74.2926580  36.8423730  16.4338720  73.0767320  36.7173840  17.3270590
  72.3427470  42.6585940  14.9734060  73.1090740  42.5467300  15.5359490
  72.4202160  41.9623910  14.3210830  71.0374230  40.0911010  15.6566950
  71.1177820  39.1438520  15.7684350  71.9293980  40.4217890  15.7627610
  71.8388940  50.2406400  22.7601490  72.5751420  49.6921860  23.0310060
  72.2229860  51.1062410  22.6207480  68.7234420  46.3079970  18.6343000
  67.7974200  46.5501110  18.6248410  69.1890850  47.1354230  18.5127750
  70.8447220  49.4252470  31.9487070  71.6459950  49.7464520  32.3622470
  70.3299040  49.0648050  32.6706980  74.9491250  49.4136710  14.5827060
  75.7419860  49.7025540  14.1308850  74.4295600  48.9828880  13.9039540
  68.5645030  41.9125930  30.8923120  69.0684050  41.3333210  31.4639350
  67.8252450  42.1966160  31.4299490  75.4668650  44.6340120  14.4469410
  75.3619290  44.0192470  15.1730790  75.2992870  44.1106010  13.6632420
  75.6182970  43.3196920  30.4258640  74.8528640  43.8881920  30.3413310
  75.7998930  43.0273130  29.5326870  70.5968110  40.0555520  31.7873190
  70.6373450  39.7569390  32.6958420  71.4513610  40.4563130  31.6280710
  74.3746500  42.6551070  16.9476700  74.7962920  42.4890940  17.7908090
  74.4997340  41.8451300  16.4531840  72.5373920  38.6347620  29.7547680
  72.0070380  38.1438570  29.1271020  73.2061990  39.0631820  29.2205610
  73.0246220  35.6009990  29.8344970  72.9303090  34.9830740  29.1095840
  72.4443610  36.3276280  29.6074880  75.7907660  34.1583230  26.8672360
  75.3424960  34.1807490  26.0217910  75.1572860  33.7602250  27.4642660
  76.1967210  43.0537560  27.4884800  76.6155320  43.8970290  27.3161040
  75.2775840  43.1909600  27.2591580  73.2705400  38.7284300  13.8934860
  73.0694460  37.8651660  14.2548200  73.0997450  38.6417660  12.9556460
  74.0474630  49.3590570  28.6042530  73.5095720  50.0836630  28.2851230
  74.3008590  48.8820910  27.8139870  75.2999880  37.3275090  30.1298460
  75.8899570  37.0190940  30.8176280  74.4820120  36.8554840  30.2858360
  72.0688200  35.8284920  13.8812740  72.3714100  35.8352350  12.9731890
  72.8082790  35.4782780  14.3780400  76.9036840  50.5941780  28.8629180
  76.8295540  51.4976920  29.1701550  76.0015680  50.2753680  28.8351250
  75.2873130  34.7719540  14.8668940  74.9395130  34.0943530  14.2871390
  75.4885900  34.3109050  15.6812330  71.0918330  45.1327340  14.7142540
  71.5293200  45.6757010  15.3700120  71.5766060  44.3074290  14.7238880
  68.3064130  47.9216370  22.1662800  68.6367140  47.0537430  21.9341440
  68.7355130  48.1274890  22.9967760  72.9026050  46.2525380  19.8264770
  72.6021590  46.1290350  20.7268680  72.7963540  45.3933970  19.4180500
  68.7954340  48.7886960  24.9044430  68.3585330  48.9687760  25.7368580
  69.3632020  49.5461580  24.7626150  68.6278770  41.3007190  21.2633310
  67.9727610  41.0318830  20.6193010  69.4656720  41.1911670  20.8135290
  69.6654700  41.6859760  25.8036650  70.0327740  41.5987160  26.6832670
  69.0965520  40.9226310  25.7043510  69.2170700  38.5968850  29.7095070
  68.3226750  38.5635610  30.0488780  69.7568250  38.7955640  30.4746320
  67.8416850  38.5106120  17.2058640  66.9380930  38.7736320  17.0310300
  68.3257470  38.7817290  16.4258600  70.3844060  37.5671660  15.1153020
  71.0935760  37.1454880  14.6300300  69.6684000  37.6346890  14.4836370
  70.0318220  33.6210990  14.1555670  70.7546350  34.1619930  14.4736890
  70.3042740  33.3474410  13.2797210  69.7210410  32.8717180  24.0578290
  70.3686600  32.3214560  23.6173450  70.1412250  33.1260330  24.8794100
  69.4742410  33.0272850  26.8003610  69.1257230  33.4836670  27.5661790
  69.1430110  32.1329980  26.8826040  71.0806780  46.1992450  30.9656800
  71.0376410  45.8285360  31.8471260  71.2117790  47.1370020  31.1058620
  74.7812810  47.7552040  26.5666520  74.5404170  48.0226600  25.6797040
  75.7215450  47.9257770  26.6217380  70.1463050  32.5549050  30.0754380
  70.6946040  32.3737100  29.3120490  70.2118360  31.7643160  30.6110690
  70.9194810  49.1454700  28.0854580  70.3255130  49.0139400  28.8244620
  70.9118650  48.3092840  27.6196680  70.5507040  46.5113080  27.0362620
  69.8241100  45.8918370  26.9688570  70.6116190  46.9053690  26.1660700
  74.1552140  48.7258080  23.8212030  74.6717160  48.1145440  23.2960290
  74.8049520  49.2286860  24.3123040  68.8337040  49.8287470  20.2459380
  68.6659080  49.1958150  20.9441270  67.9671550  50.0346870  19.8953570
  69.4565060  33.6604250  17.7491240  70.2144420  33.7733130  17.1755270
  68.9942230  34.4973450  17.7034670  75.9978870  35.7743520  20.7393550
  75.1853380  35.4000410  20.3989430  76.5020510  35.0188600  21.0414740
  70.4399740  48.5220700  17.6909520  69.9147360  48.9028730  16.9871480
  70.3644320  49.1471470  18.4119230  71.8290210  34.1868300  16.2893210
  72.3582970  33.3998100  16.1601160  72.4618530  34.8659490  16.5228740
  74.0228050  33.9243440  19.3438600  73.3930790  33.2230750  19.5108730
  73.4833190  34.6847570  19.1271760  74.1483610  33.2027420  31.7791090
  73.8667880  33.7061020  31.0151910  74.5303310  32.4049170  31.4133220
  73.0392710  50.4703080  16.5658770  73.7711530  50.1862360  16.0182660
  73.2986380  50.2316360  17.4558150  72.2007500  46.5867810  16.5705100
  71.5716380  47.0552910  17.1190930  72.3155330  45.7417030  17.0051290
  71.8041090  42.7272300   5.4791330  70.9725970  42.4721010   5.8787840
  72.4122070  42.7983070   6.2149250  71.7842350  46.7612390   5.6749350
  72.0870390  45.8710130   5.4959570  72.5285940  47.3182610   5.4471600
  68.1766050  40.2879840   5.1473420  68.7482160  39.5202040   5.1477060
  68.1767590  40.5868600   4.2380030  69.4190920  35.6964200   6.9342350
  69.2393760  34.7989950   7.2145110  69.0171000  36.2436070   7.6089300
  70.0377590  38.1924700   5.5424690  70.7187700  38.4563070   6.1612090
  69.7225640  37.3525570   5.8762700  74.2302160  39.2392060   4.6297280
  74.7380380  39.7373030   5.2702300  74.7615400  38.4627260   4.4536640
  72.5138260  33.8790620   8.8960700  72.5156700  34.3963010   8.0906600
  71.6842570  33.4020800   8.8730630  73.7641110  43.5185800   7.0734200
  73.4310490  44.1454720   7.7155270  73.9407790  44.0447680   6.2935870
  72.1953590  35.5900580   6.9031150  72.5370400  36.4342630   6.6085020
  71.2569400  35.7384320   7.0196490  72.9760210  45.4866600   8.8883380
  73.5934210  46.1617680   8.6067830  72.1153330  45.8954580   8.7970880
  75.8781480  33.0782850   3.2275740  76.1856460  32.5229740   2.5111240
  74.9482180  33.2127310   3.0448730  73.8718880  41.6696420   2.7455590
  73.4675880  40.9573670   2.2501490  73.9582000  41.3249660   3.6343630
  74.3400580  45.3563980   4.9094800  74.0428870  44.7509450   4.2302580
  75.2900400  45.3941290   4.7984160  72.5847500  38.4439630   6.5254630
  73.1362090  38.5534970   5.7507880  73.0991010  38.8177230   7.2409860
  73.4319010  45.0945670  11.5602600  72.5347540  45.3185640  11.8076000
  73.4571880  45.2180610  10.6114000  72.2590230  41.9658990  10.1359970
  72.1198000  42.8381790  10.5047370  71.3771590  41.6231800   9.9907910
  74.0570580  47.9080690  12.3445120  74.0286010  48.3123640  11.4773550
  73.8935550  46.9791050  12.1816720  68.2108880  43.7356540   6.0530880
  68.2889300  43.8705310   5.1086600  68.8250560  43.0272430   6.2459000
  68.2668400  44.7770710   8.5925340  68.4299440  44.3076070   7.7744710
  68.7320850  44.2694270   9.2574180  73.0387170  33.9076470   3.6285910
  72.5955320  34.6886010   3.2970430  73.5972160  34.2306360   4.3356850
  75.0763070  34.4523800   5.4875510  75.3735400  35.3586630   5.4067530
  75.6248630  33.9642580   4.8735080  75.2700600  39.9295620  12.0227430
  75.1744200  38.9890350  11.8727830  76.1132580  40.1510690  11.6275500
  70.4011140  36.3409290  10.1761210  70.0074530  37.1884500  10.3833990
  69.7129540  35.7035660  10.3669850  67.7028190  34.2637750   4.2091290
  67.4141240  34.8340610   4.9216270  68.4473950  33.7842200   4.5722520
  75.6896550  36.9396900   4.4864360  75.6932610  36.4986850   3.6368900
  76.5847670  37.2614230   4.5936180  71.5398930  36.8223390   3.4458570
  71.1998980  37.2998620   4.2025620  70.7776250  36.3688510   3.0859670
  69.8407380  44.1522140  10.7521150  69.4562170  43.5115810  11.3504110
  70.1519570  44.8558260  11.3215880  75.9904520  40.9998680   6.2329770
  76.3574650  40.5257250   6.9791110  75.8009580  41.8740250   6.5738110
  68.8545010  35.7442370   2.3623240  68.5691930  35.3798040   3.2001860
  68.7923870  35.0122830   1.7486380  73.7803890  40.0407320   8.5513980
  73.4760960  40.9199300   8.7764340  74.7350350  40.1007110   8.5871420
  72.3523080  43.9148690   2.7859640  72.8701750  43.1116950   2.7316530
  71.9007100  43.8527830   3.6276470  69.8367620  40.8810060   9.6985340
  69.4782560  41.5463910  10.2858680  69.5422180  40.0493610  10.0697960
  73.0380740  41.3394300  12.5824890  72.7380880  41.4851480  11.6852710
  73.8091980  40.7799590  12.4898280  68.4116190  34.3703300  10.3757440
  67.6974710  34.5700220  10.9810050  68.8311230  33.5942870  10.7472240
  68.6988780  48.3583560  11.3623970  68.8079900  47.4178300  11.2219360
  68.0469340  48.6238310  10.7137700  76.6901370  46.6299450  12.7622090
  76.3698240  45.9108690  13.3067780  76.0159730  47.3054520  12.8358150
  71.8388940  50.2406400   3.9858000  72.5751420  49.6921860   4.2566570
  72.2229860  51.1062410   3.8463990  70.8447220  49.4252470  13.1743580
  71.6459950  49.7464520  13.5878980  70.3299040  49.0648050  13.8963490
  68.5645030  41.9125930  12.1179630  69.0684050  41.3333210  12.6895860
  67.8252450  42.1966160  12.6556000  75.6182970  43.3196920  11.6515150
  74.8528640  43.8881920  11.5669820  75.7998930  43.0273130  10.7583380
  70.5968110  40.0555520  13.0129700  70.6373450  39.7569390  13.9214930
  71.4513610  40.4563130  12.8537220  72.5373920  38.6347620  10.9804190
  72.0070380  38.1438570  10.3527530  73.2061990  39.0631820  10.4462120
  73.0246220  35.6009990  11.0601480  72.9303090  34.9830740  10.3352350
  72.4443610  36.3276280  10.8331390  75.7907660  34.1583230   8.0928870
  75.3424960  34.1807490   7.2474420  75.1572860  33.7602250   8.6899170
  76.1967210  43.0537560   8.7141310  76.6155320  43.8970290   8.5417550
  75.2775840  43.1909600   8.4848090  74.0474630  49.3590570   9.8299040
  73.5095720  50.0836630   9.5107740  74.3008590  48.8820910   9.0396380
  75.2999880  37.3275090  11.3554970  75.8899570  37.0190940  12.0432790
  74.4820120  36.8554840  11.5114870  76.9036840  50.5941780  10.0885690
  76.8295540  51.4976920  10.3958060  76.0015680  50.2753680  10.0607760
  68.3064130  47.9216370   3.3919310  68.6367140  47.0537430   3.1597950
  68.7355130  48.1274890   4.2224270  68.7954340  48.7886960   6.1300940
  68.3585330  48.9687760   6.9625090  69.3632020  49.5461580   5.9882660
  68.6278770  41.3007190   2.4889820  67.9727610  41.0318830   1.8449520
  69.4656720  41.1911670   2.0391800  69.6654700  41.6859760   7.0293160
  70.0327740  41.5987160   7.9089180  69.0965520  40.9226310   6.9300020
  69.2170700  38.5968850  10.9351580  68.3226750  38.5635610  11.2745290
  69.7568250  38.7955640  11.7002830  69.7210410  32.8717180   5.2834800
  70.3686600  32.3214560   4.8429960  70.1412250  33.1260330   6.1050610
  69.4742410  33.0272850   8.0260120  69.1257230  33.4836670   8.7918300
  69.1430110  32.1329980   8.1082550  71.0806780  46.1992450  12.1913310
  71.0376410  45.8285360  13.0727770  71.2117790  47.1370020  12.3315130
  74.7812810  47.7552040   7.7923030  74.5404170  48.0226600   6.9053550
  75.7215450  47.9257770   7.8473890  70.1463050  32.5549050  11.3010890
  70.6946040  32.3737100  10.5377000  70.2118360  31.7643160  11.8367200
  70.9194810  49.1454700   9.3111090  70.3255130  49.0139400  10.0501130
  70.9118650  48.3092840   8.8453190  70.5507040  46.5113080   8.2619130
  69.8241100  45.8918370   8.1945080  70.6116190  46.9053690   7.3917210
  74.1552140  48.7258080   5.0468540  74.6717160  48.1145440   4.5216800
  74.8049520  49.2286860   5.5379550  74.1483610  33.2027420  13.0047600
  73.8667880  33.7061020  12.2408420  74.5303310  32.4049170  12.6389730
  71.8041090  23.9528810  80.5765290  70.9725970  23.6977520  80.9761800
  72.4122070  24.0239580  81.3123210  71.7842350  27.9868900  80.7723310
  72.0870390  27.0966640  80.5933530  72.5285940  28.5439120  80.5445560
  70.2133040  18.9130700  74.3607680  69.3249740  19.2546670  74.2587560
  70.4974230  18.7131020  73.4688510  68.1766050  21.5136350  80.2447380
  68.7482160  20.7458550  80.2451020  68.1767590  21.8125110  79.3353990
  72.3894430  17.4962200  75.3946060  72.4961180  18.3965930  75.7014820
  71.4786790  17.4480170  75.1040710  70.0377590  19.4181210  80.6398650
  70.7187700  19.6819580  81.2586050  69.7225640  18.5782080  80.9736660
  74.2302160  20.4648570  79.7271240  74.7380380  20.9629540  80.3676260
  74.7615400  19.6883770  79.5510600  68.2692550  25.9022970  72.8664190
  67.8920530  26.3910070  72.1349090  68.5265620  26.5748250  73.4970720
  75.8781480  14.3039360  78.3249700  76.1856460  13.7486250  77.6085200
  74.9482180  14.4383820  78.1422690  73.8718880  22.8952930  77.8429550
  73.4675880  22.1830180  77.3475450  73.9582000  22.5506170  78.7317590
  74.3400580  26.5820490  80.0068760  74.0428870  25.9765960  79.3276540
  75.2900400  26.6197800  79.8958120  70.5723510  21.7897910  75.3436200
  70.4521110  22.5160000  74.7317470  70.2624400  21.0200820  74.8664110
  68.2108880  24.9613050  81.1504840  68.2889300  25.0961820  80.2060560
  68.8250560  24.2528940  81.3432960  69.4556510  26.6613240  77.5611020
  69.0484590  26.8027830  76.7064620  70.3469520  26.3773400  77.3582230
  73.7278170  30.8759020  75.6733690  73.5520650  29.9594560  75.4601490
  72.8733910  31.2346310  75.9131490  73.0387170  15.1332980  78.7259870
  72.5955320  15.9142520  78.3944390  73.5972160  15.4562870  79.4330810
  76.1545990  14.7543680  73.6065700  75.5300170  14.7503550  74.3319010
  76.0676110  13.8874640  73.2101670  75.0763070  15.6780310  80.5849470
  75.3735400  16.5843140  80.5041490  75.6248630  15.1899090  79.9709040
  72.8301390  20.2566550  76.4541120  72.6042310  20.0403720  77.3587740
  72.0493920  20.6895010  76.1087090  67.7028190  15.4894260  79.3065250
  67.4141240  16.0597120  80.0190230  68.4473950  15.0098710  79.6696480
  67.8898420  19.4314380  70.5167970  67.8073090  20.3745140  70.6582960
  67.5381480  19.2889290  69.6380320  75.6896550  18.1653410  79.5838320
  75.6932610  17.7243360  78.7342860  76.5847670  18.4870740  79.6910140
  71.5398930  18.0479900  78.5432530  71.1998980  18.5255130  79.2999580
  70.7776250  17.5945020  78.1833630  75.7516700  19.1665490  72.5745080
  75.8729520  19.1251970  73.5230900  75.3665210  20.0289640  72.4191810
  74.7638200  21.4766630  71.9728380  74.1955100  21.0284880  71.3464290
  75.4727200  21.8359410  71.4393530  68.8545010  16.9698880  77.4597200
  68.5691930  16.6054550  78.2975820  68.7923870  16.2379340  76.8460340
  72.3085680  25.4724820  74.2454790  71.5347940  24.9322440  74.0853510
  73.0380310  24.9531430  73.9072550  72.3523080  25.1405200  77.8833600
  72.8701750  24.3373460  77.8290490  71.9007100  25.0784340  78.7250430
  76.2083270  26.4885010  75.9276820  76.8954400  27.0354220  76.3084410
  75.4215690  27.0325740  75.9626430  68.3475670  22.1057830  71.4193900
  69.2170520  22.3882630  71.7029820  67.8565990  22.9193700  71.3042710
  75.5110480  23.4931040  75.5402180  75.9673260  24.3036290  75.7662370
  75.1598690  23.1754180  76.3720670  71.4122260  13.8368690  76.0124700
  71.2836890  13.8286590  76.9609620  70.5884280  14.1751780  75.6615710
  68.7146920  31.3185210  71.9855530  69.0744560  31.9174550  71.3312800
  68.5739260  31.8645100  72.7590560  74.7315540  28.7016410  72.8029200
  74.7225640  29.4346100  72.1873710  73.8113900  28.4547990  72.8956160
  70.3322180  23.9231300  73.5475960  69.7250130  24.6630200  73.5571260
  70.8071530  24.0130660  72.7214160  75.2401030  19.3225010  75.4478290
  74.5317180  19.7911350  75.8891900  75.5245510  18.6647020  76.0823480
  76.3593250  31.2830970  76.1602060  76.6134750  31.2452360  75.2381430
  75.4105730  31.1564300  76.1530310  73.4436050  17.6310090  72.8229000
  74.2926580  18.0680240  72.7569190  73.0767320  17.9430350  73.6501060
  72.3427470  23.8842450  71.2964530  73.1090740  23.7723810  71.8589960
  72.4202160  23.1880420  70.6441300  71.0374230  21.3167520  71.9797420
  71.1177820  20.3695030  72.0914820  71.9293980  21.6474400  72.0858080
  71.8388940  31.4662910  79.0831960  72.5751420  30.9178370  79.3540530
  72.2229860  32.3318920  78.9437950  68.7234420  27.5336480  74.9573470
  67.7974200  27.7757620  74.9478880  69.1890850  28.3610740  74.8358220
  74.9491250  30.6393220  70.9057530  75.7419860  30.9282050  70.4539320
  74.4295600  30.2085390  70.2270010  75.4668650  25.8596630  70.7699880
  75.3619290  25.2448980  71.4961260  75.2992870  25.3362520  69.9862890
  74.3746500  23.8807580  73.2707170  74.7962920  23.7147450  74.1138560
  74.4997340  23.0707810  72.7762310  73.2705400  19.9540810  70.2165330
  73.0694460  19.0908170  70.5778670  73.0997450  19.8674170  69.2786930
  72.0688200  17.0541430  70.2043210  72.3714100  17.0608860  69.2962360
  72.8082790  16.7039290  70.7010870  75.2873130  15.9976050  71.1899410
  74.9395130  15.3200040  70.6101860  75.4885900  15.5365560  72.0042800
  71.0918330  26.3583850  71.0373010  71.5293200  26.9013520  71.6930590
  71.5766060  25.5330800  71.0469350  68.3064130  29.1472880  78.4893270
  68.6367140  28.2793940  78.2571910  68.7355130  29.3531400  79.3198230
  72.9026050  27.4781890  76.1495240  72.6021590  27.3546860  77.0499150
  72.7963540  26.6190480  75.7410970  68.6278770  22.5263700  77.5863780
  67.9727610  22.2575340  76.9423480  69.4656720  22.4168180  77.1365760
  67.8416850  19.7362630  73.5289110  66.9380930  19.9992830  73.3540770
  68.3257470  20.0073800  72.7489070  70.3844060  18.7928170  71.4383490
  71.0935760  18.3711390  70.9530770  69.6684000  18.8603400  70.8066840
  70.0318220  14.8467500  70.4786140  70.7546350  15.3876440  70.7967360
  70.3042740  14.5730920  69.6027680  69.7210410  14.0973690  80.3808760
  70.3686600  13.5471070  79.9403920  70.1412250  14.3516840  81.2024570
  74.1552140  29.9514590  80.1442500  74.6717160  29.3401950  79.6190760
  74.8049520  30.4543370  80.6353510  68.8337040  31.0543980  76.5689850
  68.6659080  30.4214660  77.2671740  67.9671550  31.2603380  76.2184040
  69.4565060  14.8860760  74.0721710  70.2144420  14.9989640  73.4985740
  68.9942230  15.7229960  74.0265140  75.9978870  17.0000030  77.0624020
  75.1853380  16.6256920  76.7219900  76.5020510  16.2445110  77.3645210
  70.4399740  29.7477210  74.0139990  69.9147360  30.1285240  73.3101950
  70.3644320  30.3727980  74.7349700  71.8290210  15.4124810  72.6123680
  72.3582970  14.6254610  72.4831630  72.4618530  16.0916000  72.8459210
  74.0228050  15.1499950  75.6669070  73.3930790  14.4487260  75.8339200
  73.4833190  15.9104080  75.4502230  73.0392710  31.6959590  72.8889240
  73.7711530  31.4118870  72.3413130  73.2986380  31.4572870  73.7788620
  72.2007500  27.8124320  72.8935570  71.5716380  28.2809420  73.4421400
  72.3155330  26.9673540  73.3281760  71.8041090  23.9528810  61.8021800
  70.9725970  23.6977520  62.2018310  72.4122070  24.0239580  62.5379720
  71.7842350  27.9868900  61.9979820  72.0870390  27.0966640  61.8190040
  72.5285940  28.5439120  61.7702070  70.2133040  18.9130700  55.5864190
  69.3249740  19.2546670  55.4844070  70.4974230  18.7131020  54.6945020
  68.1766050  21.5136350  61.4703890  68.7482160  20.7458550  61.4707530
  68.1767590  21.8125110  60.5610500  69.4190920  16.9220710  63.2572820
  69.2393760  16.0246460  63.5375580  69.0171000  17.4692580  63.9319770
  72.3894430  17.4962200  56.6202570  72.4961180  18.3965930  56.9271330
  71.4786790  17.4480170  56.3297220  70.0377590  19.4181210  61.8655160
  70.7187700  19.6819580  62.4842560  69.7225640  18.5782080  62.1993170
  74.2302160  20.4648570  60.9527750  74.7380380  20.9629540  61.5932770
  74.7615400  19.6883770  60.7767110  72.5138260  15.1047130  65.2191170
  72.5156700  15.6219520  64.4137070  71.6842570  14.6277310  65.1961100
  73.7641110  24.7442310  63.3964670  73.4310490  25.3711230  64.0385740
  73.9407790  25.2704190  62.6166340  72.1953590  16.8157090  63.2261620
  72.5370400  17.6599140  62.9315490  71.2569400  16.9640830  63.3426960
  72.9760210  26.7123110  65.2113850  73.5934210  27.3874190  64.9298300
  72.1153330  27.1211090  65.1201350  68.2692550  25.9022970  54.0920700
  67.8920530  26.3910070  53.3605600  68.5265620  26.5748250  54.7227230
  75.8781480  14.3039360  59.5506210  76.1856460  13.7486250  58.8341710
  74.9482180  14.4383820  59.3679200  73.8718880  22.8952930  59.0686060
  73.4675880  22.1830180  58.5731960  73.9582000  22.5506170  59.9574100
  74.3400580  26.5820490  61.2325270  74.0428870  25.9765960  60.5533050
  75.2900400  26.6197800  61.1214630  72.5847500  19.6696140  62.8485100
  73.1362090  19.7791480  62.0738350  73.0991010  20.0433740  63.5640330
  73.4319010  26.3202180  67.8833070  72.5347540  26.5442150  68.1306470
  73.4571880  26.4437120  66.9344470  72.2590230  23.1915500  66.4590440
  72.1198000  24.0638300  66.8277840  71.3771590  22.8488310  66.3138380
  74.0570580  29.1337200  68.6675590  74.0286010  29.5380150  67.8004020
  73.8935550  28.2047560  68.5047190  70.5723510  21.7897910  56.5692710
  70.4521110  22.5160000  55.9573980  70.2624400  21.0200820  56.0920620
  68.2108880  24.9613050  62.3761350  68.2889300  25.0961820  61.4317070
  68.8250560  24.2528940  62.5689470  69.4556510  26.6613240  58.7867530
  69.0484590  26.8027830  57.9321130  70.3469520  26.3773400  58.5838740
  73.7278170  30.8759020  56.8990200  73.5520650  29.9594560  56.6858000
  72.8733910  31.2346310  57.1388000  68.2668400  26.0027220  64.9155810
  68.4299440  25.5332580  64.0975180  68.7320850  25.4950780  65.5804650
  73.0387170  15.1332980  59.9516380  72.5955320  15.9142520  59.6200900
  73.5972160  15.4562870  60.6587320  76.1545990  14.7543680  54.8322210
  75.5300170  14.7503550  55.5575520  76.0676110  13.8874640  54.4358180
  75.0763070  15.6780310  61.8105980  75.3735400  16.5843140  61.7298000
  75.6248630  15.1899090  61.1965550  72.8301390  20.2566550  57.6797630
  72.6042310  20.0403720  58.5844250  72.0493920  20.6895010  57.3343600
  75.2700600  21.1552130  68.3457900  75.1744200  20.2146860  68.1958300
  76.1132580  21.3767200  67.9505970  70.4011140  17.5665800  66.4991680
  70.0074530  18.4141010  66.7064460  69.7129540  16.9292170  66.6900320
  67.7028190  15.4894260  60.5321760  67.4141240  16.0597120  61.2446740
  68.4473950  15.0098710  60.8952990  67.8898420  19.4314380  51.7424480
  67.8073090  20.3745140  51.8839470  67.5381480  19.2889290  50.8636830
  75.6896550  18.1653410  60.8094830  75.6932610  17.7243360  59.9599370
  76.5847670  18.4870740  60.9166650  71.5398930  18.0479900  59.7689040
  71.1998980  18.5255130  60.5256090  70.7776250  17.5945020  59.4090140
  75.7516700  19.1665490  53.8001590  75.8729520  19.1251970  54.7487410
  75.3665210  20.0289640  53.6448320  74.7638200  21.4766630  53.1984890
  74.1955100  21.0284880  52.5720800  75.4727200  21.8359410  52.6650040
  69.8407380  25.3778650  67.0751620  69.4562170  24.7372320  67.6734580
  70.1519570  26.0814770  67.6446350  75.9904520  22.2255190  62.5560240
  76.3574650  21.7513760  63.3021580  75.8009580  23.0996760  62.8968580
  68.8545010  16.9698880  58.6853710  68.5691930  16.6054550  59.5232330
  68.7923870  16.2379340  58.0716850  73.7803890  21.2663830  64.8744450
  73.4760960  22.1455810  65.0994810  74.7350350  21.3263620  64.9101890
  72.3085680  25.4724820  55.4711300  71.5347940  24.9322440  55.3110020
  73.0380310  24.9531430  55.1329060  72.3523080  25.1405200  59.1090110
  72.8701750  24.3373460  59.0547000  71.9007100  25.0784340  59.9506940
  69.8367620  22.1066570  66.0215810  69.4782560  22.7720420  66.6089150
  69.5422180  21.2750120  66.3928430  73.0380740  22.5650810  68.9055360
  72.7380880  22.7107990  68.0083180  73.8091980  22.0056100  68.8128750
  76.2083270  26.4885010  57.1533330  76.8954400  27.0354220  57.5340920
  75.4215690  27.0325740  57.1882940  68.3475670  22.1057830  52.6450410
  69.2170520  22.3882630  52.9286330  67.8565990  22.9193700  52.5299220
  75.5110480  23.4931040  56.7658690  75.9673260  24.3036290  56.9918880
  75.1598690  23.1754180  57.5977180  71.4122260  13.8368690  57.2381210
  71.2836890  13.8286590  58.1866130  70.5884280  14.1751780  56.8872220
  68.7146920  31.3185210  53.2112040  69.0744560  31.9174550  52.5569310
  68.5739260  31.8645100  53.9847070  68.4116190  15.5959810  66.6987910
  67.6974710  15.7956730  67.3040520  68.8311230  14.8199380  67.0702710
  68.6988780  29.5840070  67.6854440  68.8079900  28.6434810  67.5449830
  68.0469340  29.8494820  67.0368170  76.6901370  27.8555960  69.0852560
  76.3698240  27.1365200  69.6298250  76.0159730  28.5311030  69.1588620
  74.7315540  28.7016410  54.0285710  74.7225640  29.4346100  53.4130220
  73.8113900  28.4547990  54.1212670  70.3322180  23.9231300  54.7732470
  69.7250130  24.6630200  54.7827770  70.8071530  24.0130660  53.9470670
  75.2401030  19.3225010  56.6734800  74.5317180  19.7911350  57.1148410
  75.5245510  18.6647020  57.3079990  76.3593250  31.2830970  57.3858570
  76.6134750  31.2452360  56.4637940  75.4105730  31.1564300  57.3786820
  73.4436050  17.6310090  54.0485510  74.2926580  18.0680240  53.9825700
  73.0767320  17.9430350  54.8757570  72.3427470  23.8842450  52.5221040
  73.1090740  23.7723810  53.0846470  72.4202160  23.1880420  51.8697810
  71.0374230  21.3167520  53.2053930  71.1177820  20.3695030  53.3171330
  71.9293980  21.6474400  53.3114590  71.8388940  31.4662910  60.3088470
  72.5751420  30.9178370  60.5797040  72.2229860  32.3318920  60.1694460
  68.7234420  27.5336480  56.1829980  67.7974200  27.7757620  56.1735390
  69.1890850  28.3610740  56.0614730  70.8447220  30.6508980  69.4974050
  71.6459950  30.9721030  69.9109450  70.3299040  30.2904560  70.2193960
  74.9491250  30.6393220  52.1314040  75.7419860  30.9282050  51.6795830
  74.4295600  30.2085390  51.4526520  68.5645030  23.1382440  68.4410100
  69.0684050  22.5589720  69.0126330  67.8252450  23.4222670  68.9786470
  75.4668650  25.8596630  51.9956390  75.3619290  25.2448980  52.7217770
  75.2992870  25.3362520  51.2119400  75.6182970  24.5453430  67.9745620
  74.8528640  25.1138430  67.8900290  75.7998930  24.2529640  67.0813850
  70.5968110  21.2812030  69.3360170  70.6373450  20.9825900  70.2445400
  71.4513610  21.6819640  69.1767690  74.3746500  23.8807580  54.4963680
  74.7962920  23.7147450  55.3395070  74.4997340  23.0707810  54.0018820
  72.5373920  19.8604130  67.3034660  72.0070380  19.3695080  66.6758000
  73.2061990  20.2888330  66.7692590  73.0246220  16.8266500  67.3831950
  72.9303090  16.2087250  66.6582820  72.4443610  17.5532790  67.1561860
  75.7907660  15.3839740  64.4159340  75.3424960  15.4064000  63.5704890
  75.1572860  14.9858760  65.0129640  76.1967210  24.2794070  65.0371780
  76.6155320  25.1226800  64.8648020  75.2775840  24.4166110  64.8078560
  73.2705400  19.9540810  51.4421840  73.0694460  19.0908170  51.8035180
  73.0997450  19.8674170  50.5043440  74.0474630  30.5847080  66.1529510
  73.5095720  31.3093140  65.8338210  74.3008590  30.1077420  65.3626850
  75.2999880  18.5531600  67.6785440  75.8899570  18.2447450  68.3663260
  74.4820120  18.0811350  67.8345340  72.0688200  17.0541430  51.4299720
  72.3714100  17.0608860  50.5218870  72.8082790  16.7039290  51.9267380
  76.9036840  31.8198290  66.4116160  76.8295540  32.7233430  66.7188530
  76.0015680  31.5010190  66.3838230  75.2873130  15.9976050  52.4155920
  74.9395130  15.3200040  51.8358370  75.4885900  15.5365560  53.2299310
  71.0918330  26.3583850  52.2629520  71.5293200  26.9013520  52.9187100
  71.5766060  25.5330800  52.2725860  68.3064130  29.1472880  59.7149780
  68.6367140  28.2793940  59.4828420  68.7355130  29.3531400  60.5454740
  72.9026050  27.4781890  57.3751750  72.6021590  27.3546860  58.2755660
  72.7963540  26.6190480  56.9667480  68.7954340  30.0143470  62.4531410
  68.3585330  30.1944270  63.2855560  69.3632020  30.7718090  62.3113130
  68.6278770  22.5263700  58.8120290  67.9727610  22.2575340  58.1679990
  69.4656720  22.4168180  58.3622270  69.6654700  22.9116270  63.3523630
  70.0327740  22.8243670  64.2319650  69.0965520  22.1482820  63.2530490
  69.2170700  19.8225360  67.2582050  68.3226750  19.7892120  67.5975760
  69.7568250  20.0212150  68.0233300  67.8416850  19.7362630  54.7545620
  66.9380930  19.9992830  54.5797280  68.3257470  20.0073800  53.9745580
  70.3844060  18.7928170  52.6640000  71.0935760  18.3711390  52.1787280
  69.6684000  18.8603400  52.0323350  70.0318220  14.8467500  51.7042650
  70.7546350  15.3876440  52.0223870  70.3042740  14.5730920  50.8284190
  69.7210410  14.0973690  61.6065270  70.3686600  13.5471070  61.1660430
  70.1412250  14.3516840  62.4281080  69.4742410  14.2529360  64.3490590
  69.1257230  14.7093180  65.1148770  69.1430110  13.3586490  64.4313020
  71.0806780  27.4248960  68.5143780  71.0376410  27.0541870  69.3958240
  71.2117790  28.3626530  68.6545600  74.7812810  28.9808550  64.1153500
  74.5404170  29.2483110  63.2284020  75.7215450  29.1514280  64.1704360
  70.1463050  13.7805560  67.6241360  70.6946040  13.5993610  66.8607470
  70.2118360  12.9899670  68.1597670  70.9194810  30.3711210  65.6341560
  70.3255130  30.2395910  66.3731600  70.9118650  29.5349350  65.1683660
  70.5507040  27.7369590  64.5849600  69.8241100  27.1174880  64.5175550
  70.6116190  28.1310200  63.7147680  74.1552140  29.9514590  61.3699010
  74.6717160  29.3401950  60.8447270  74.8049520  30.4543370  61.8610020
  68.8337040  31.0543980  57.7946360  68.6659080  30.4214660  58.4928250
  67.9671550  31.2603380  57.4440550  69.4565060  14.8860760  55.2978220
  70.2144420  14.9989640  54.7242250  68.9942230  15.7229960  55.2521650
  75.9978870  17.0000030  58.2880530  75.1853380  16.6256920  57.9476410
  76.5020510  16.2445110  58.5901720  70.4399740  29.7477210  55.2396500
  69.9147360  30.1285240  54.5358460  70.3644320  30.3727980  55.9606210
  71.8290210  15.4124810  53.8380190  72.3582970  14.6254610  53.7088140
  72.4618530  16.0916000  54.0715720  74.0228050  15.1499950  56.8925580
  73.3930790  14.4487260  57.0595710  73.4833190  15.9104080  56.6758740
  74.1483610  14.4283930  69.3278070  73.8667880  14.9317530  68.5638890
  74.5303310  13.6305680  68.9620200  73.0392710  31.6959590  54.1145750
  73.7711530  31.4118870  53.5669640  73.2986380  31.4572870  55.0045130
  72.2007500  27.8124320  54.1192080  71.5716380  28.2809420  54.6677910
  72.3155330  26.9673540  54.5538270  71.8041090  23.9528810  43.0278310
  70.9725970  23.6977520  43.4274820  72.4122070  24.0239580  43.7636230
  71.7842350  27.9868900  43.2236330  72.0870390  27.0966640  43.0446550
  72.5285940  28.5439120  42.9958580  70.2133040  18.9130700  36.8120700
  69.3249740  19.2546670  36.7100580  70.4974230  18.7131020  35.9201530
  68.1766050  21.5136350  42.6960400  68.7482160  20.7458550  42.6964040
  68.1767590  21.8125110  41.7867010  69.4190920  16.9220710  44.4829330
  69.2393760  16.0246460  44.7632090  69.0171000  17.4692580  45.1576280
  72.3894430  17.4962200  37.8459080  72.4961180  18.3965930  38.1527840
  71.4786790  17.4480170  37.5553730  70.0377590  19.4181210  43.0911670
  70.7187700  19.6819580  43.7099070  69.7225640  18.5782080  43.4249680
  74.2302160  20.4648570  42.1784260  74.7380380  20.9629540  42.8189280
  74.7615400  19.6883770  42.0023620  72.5138260  15.1047130  46.4447680
  72.5156700  15.6219520  45.6393580  71.6842570  14.6277310  46.4217610
  73.7641110  24.7442310  44.6221180  73.4310490  25.3711230  45.2642250
  73.9407790  25.2704190  43.8422850  72.1953590  16.8157090  44.4518130
  72.5370400  17.6599140  44.1572000  71.2569400  16.9640830  44.5683470
  72.9760210  26.7123110  46.4370360  73.5934210  27.3874190  46.1554810
  72.1153330  27.1211090  46.3457860  68.2692550  25.9022970  35.3177210
  67.8920530  26.3910070  34.5862110  68.5265620  26.5748250  35.9483740
  75.8781480  14.3039360  40.7762720  76.1856460  13.7486250  40.0598220
  74.9482180  14.4383820  40.5935710  73.8718880  22.8952930  40.2942570
  73.4675880  22.1830180  39.7988470  73.9582000  22.5506170  41.1830610
  74.3400580  26.5820490  42.4581780  74.0428870  25.9765960  41.7789560
  75.2900400  26.6197800  42.3471140  72.5847500  19.6696140  44.0741610
  73.1362090  19.7791480  43.2994860  73.0991010  20.0433740  44.7896840
  73.4319010  26.3202180  49.1089580  72.5347540  26.5442150  49.3562980
  73.4571880  26.4437120  48.1600980  72.2590230  23.1915500  47.6846950
  72.1198000  24.0638300  48.0534350  71.3771590  22.8488310  47.5394890
  74.0570580  29.1337200  49.8932100  74.0286010  29.5380150  49.0260530
  73.8935550  28.2047560  49.7303700  70.5723510  21.7897910  37.7949220
  70.4521110  22.5160000  37.1830490  70.2624400  21.0200820  37.3177130
  68.2108880  24.9613050  43.6017860  68.2889300  25.0961820  42.6573580
  68.8250560  24.2528940  43.7945980  69.4556510  26.6613240  40.0124040
  69.0484590  26.8027830  39.1577640  70.3469520  26.3773400  39.8095250
  73.7278170  30.8759020  38.1246710  73.5520650  29.9594560  37.9114510
  72.8733910  31.2346310  38.3644510  68.2668400  26.0027220  46.1412320
  68.4299440  25.5332580  45.3231690  68.7320850  25.4950780  46.8061160
  73.0387170  15.1332980  41.1772890  72.5955320  15.9142520  40.8457410
  73.5972160  15.4562870  41.8843830  76.1545990  14.7543680  36.0578720
  75.5300170  14.7503550  36.7832030  76.0676110  13.8874640  35.6614690
  75.0763070  15.6780310  43.0362490  75.3735400  16.5843140  42.9554510
  75.6248630  15.1899090  42.4222060  72.8301390  20.2566550  38.9054140
  72.6042310  20.0403720  39.8100760  72.0493920  20.6895010  38.5600110
  75.2700600  21.1552130  49.5714410  75.1744200  20.2146860  49.4214810
  76.1132580  21.3767200  49.1762480  70.4011140  17.5665800  47.7248190
  70.0074530  18.4141010  47.9320970  69.7129540  16.9292170  47.9156830
  67.7028190  15.4894260  41.7578270  67.4141240  16.0597120  42.4703250
  68.4473950  15.0098710  42.1209500  67.8898420  19.4314380  32.9680990
  67.8073090  20.3745140  33.1095980  67.5381480  19.2889290  32.0893340
  75.6896550  18.1653410  42.0351340  75.6932610  17.7243360  41.1855880
  76.5847670  18.4870740  42.1423160  71.5398930  18.0479900  40.9945550
  71.1998980  18.5255130  41.7512600  70.7776250  17.5945020  40.6346650
  75.7516700  19.1665490  35.0258100  75.8729520  19.1251970  35.9743920
  75.3665210  20.0289640  34.8704830  74.7638200  21.4766630  34.4241400
  74.1955100  21.0284880  33.7977310  75.4727200  21.8359410  33.8906550
  69.8407380  25.3778650  48.3008130  69.4562170  24.7372320  48.8991090
  70.1519570  26.0814770  48.8702860  75.9904520  22.2255190  43.7816750
  76.3574650  21.7513760  44.5278090  75.8009580  23.0996760  44.1225090
  68.8545010  16.9698880  39.9110220  68.5691930  16.6054550  40.7488840
  68.7923870  16.2379340  39.2973360  73.7803890  21.2663830  46.1000960
  73.4760960  22.1455810  46.3251320  74.7350350  21.3263620  46.1358400
  72.3085680  25.4724820  36.6967810  71.5347940  24.9322440  36.5366530
  73.0380310  24.9531430  36.3585570  72.3523080  25.1405200  40.3346620
  72.8701750  24.3373460  40.2803510  71.9007100  25.0784340  41.1763450
  69.8367620  22.1066570  47.2472320  69.4782560  22.7720420  47.8345660
  69.5422180  21.2750120  47.6184940  73.0380740  22.5650810  50.1311870
  72.7380880  22.7107990  49.2339690  73.8091980  22.0056100  50.0385260
  76.2083270  26.4885010  38.3789840  76.8954400  27.0354220  38.7597430
  75.4215690  27.0325740  38.4139450  68.3475670  22.1057830  33.8706920
  69.2170520  22.3882630  34.1542840  67.8565990  22.9193700  33.7555730
  75.5110480  23.4931040  37.9915200  75.9673260  24.3036290  38.2175390
  75.1598690  23.1754180  38.8233690  71.4122260  13.8368690  38.4637720
  71.2836890  13.8286590  39.4122640  70.5884280  14.1751780  38.1128730
  68.7146920  31.3185210  34.4368550  69.0744560  31.9174550  33.7825820
  68.5739260  31.8645100  35.2103580  68.4116190  15.5959810  47.9244420
  67.6974710  15.7956730  48.5297030  68.8311230  14.8199380  48.2959220
  68.6988780  29.5840070  48.9110950  68.8079900  28.6434810  48.7706340
  68.0469340  29.8494820  48.2624680  76.6901370  27.8555960  50.3109070
  76.3698240  27.1365200  50.8554760  76.0159730  28.5311030  50.3845130
  74.7315540  28.7016410  35.2542220  74.7225640  29.4346100  34.6386730
  73.8113900  28.4547990  35.3469180  70.3322180  23.9231300  35.9988980
  69.7250130  24.6630200  36.0084280  70.8071530  24.0130660  35.1727180
  75.2401030  19.3225010  37.8991310  74.5317180  19.7911350  38.3404920
  75.5245510  18.6647020  38.5336500  76.3593250  31.2830970  38.6115080
  76.6134750  31.2452360  37.6894450  75.4105730  31.1564300  38.6043330
  73.4436050  17.6310090  35.2742020  74.2926580  18.0680240  35.2082210
  73.0767320  17.9430350  36.1014080  72.3427470  23.8842450  33.7477550
  73.1090740  23.7723810  34.3102980  72.4202160  23.1880420  33.0954320
  71.0374230  21.3167520  34.4310440  71.1177820  20.3695030  34.5427840
  71.9293980  21.6474400  34.5371100  71.8388940  31.4662910  41.5344980
  72.5751420  30.9178370  41.8053550  72.2229860  32.3318920  41.3950970
  68.7234420  27.5336480  37.4086490  67.7974200  27.7757620  37.3991900
  69.1890850  28.3610740  37.2871240  70.8447220  30.6508980  50.7230560
  71.6459950  30.9721030  51.1365960  70.3299040  30.2904560  51.4450470
  74.9491250  30.6393220  33.3570550  75.7419860  30.9282050  32.9052340
  74.4295600  30.2085390  32.6783030  68.5645030  23.1382440  49.6666610
  69.0684050  22.5589720  50.2382840  67.8252450  23.4222670  50.2042980
  75.4668650  25.8596630  33.2212900  75.3619290  25.2448980  33.9474280
  75.2992870  25.3362520  32.4375910  75.6182970  24.5453430  49.2002130
  74.8528640  25.1138430  49.1156800  75.7998930  24.2529640  48.3070360
  70.5968110  21.2812030  50.5616680  70.6373450  20.9825900  51.4701910
  71.4513610  21.6819640  50.4024200  74.3746500  23.8807580  35.7220190
  74.7962920  23.7147450  36.5651580  74.4997340  23.0707810  35.2275330
  72.5373920  19.8604130  48.5291170  72.0070380  19.3695080  47.9014510
  73.2061990  20.2888330  47.9949100  73.0246220  16.8266500  48.6088460
  72.9303090  16.2087250  47.8839330  72.4443610  17.5532790  48.3818370
  75.7907660  15.3839740  45.6415850  75.3424960  15.4064000  44.7961400
  75.1572860  14.9858760  46.2386150  76.1967210  24.2794070  46.2628290
  76.6155320  25.1226800  46.0904530  75.2775840  24.4166110  46.0335070
  73.2705400  19.9540810  32.6678350  73.0694460  19.0908170  33.0291690
  73.0997450  19.8674170  31.7299950  74.0474630  30.5847080  47.3786020
  73.5095720  31.3093140  47.0594720  74.3008590  30.1077420  46.5883360
  75.2999880  18.5531600  48.9041950  75.8899570  18.2447450  49.5919770
  74.4820120  18.0811350  49.0601850  72.0688200  17.0541430  32.6556230
  72.3714100  17.0608860  31.7475380  72.8082790  16.7039290  33.1523890
  76.9036840  31.8198290  47.6372670  76.8295540  32.7233430  47.9445040
  76.0015680  31.5010190  47.6094740  75.2873130  15.9976050  33.6412430
  74.9395130  15.3200040  33.0614880  75.4885900  15.5365560  34.4555820
  71.0918330  26.3583850  33.4886030  71.5293200  26.9013520  34.1443610
  71.5766060  25.5330800  33.4982370  68.3064130  29.1472880  40.9406290
  68.6367140  28.2793940  40.7084930  68.7355130  29.3531400  41.7711250
  72.9026050  27.4781890  38.6008260  72.6021590  27.3546860  39.5012170
  72.7963540  26.6190480  38.1923990  68.7954340  30.0143470  43.6787920
  68.3585330  30.1944270  44.5112070  69.3632020  30.7718090  43.5369640
  68.6278770  22.5263700  40.0376800  67.9727610  22.2575340  39.3936500
  69.4656720  22.4168180  39.5878780  69.6654700  22.9116270  44.5780140
  70.0327740  22.8243670  45.4576160  69.0965520  22.1482820  44.4787000
  69.2170700  19.8225360  48.4838560  68.3226750  19.7892120  48.8232270
  69.7568250  20.0212150  49.2489810  67.8416850  19.7362630  35.9802130
  66.9380930  19.9992830  35.8053790  68.3257470  20.0073800  35.2002090
  70.3844060  18.7928170  33.8896510  71.0935760  18.3711390  33.4043790
  69.6684000  18.8603400  33.2579860  70.0318220  14.8467500  32.9299160
  70.7546350  15.3876440  33.2480380  70.3042740  14.5730920  32.0540700
  69.7210410  14.0973690  42.8321780  70.3686600  13.5471070  42.3916940
  70.1412250  14.3516840  43.6537590  69.4742410  14.2529360  45.5747100
  69.1257230  14.7093180  46.3405280  69.1430110  13.3586490  45.6569530
  71.0806780  27.4248960  49.7400290  71.0376410  27.0541870  50.6214750
  71.2117790  28.3626530  49.8802110  74.7812810  28.9808550  45.3410010
  74.5404170  29.2483110  44.4540530  75.7215450  29.1514280  45.3960870
  70.1463050  13.7805560  48.8497870  70.6946040  13.5993610  48.0863980
  70.2118360  12.9899670  49.3854180  70.9194810  30.3711210  46.8598070
  70.3255130  30.2395910  47.5988110  70.9118650  29.5349350  46.3940170
  70.5507040  27.7369590  45.8106110  69.8241100  27.1174880  45.7432060
  70.6116190  28.1310200  44.9404190  74.1552140  29.9514590  42.5955520
  74.6717160  29.3401950  42.0703780  74.8049520  30.4543370  43.0866530
  68.8337040  31.0543980  39.0202870  68.6659080  30.4214660  39.7184760
  67.9671550  31.2603380  38.6697060  69.4565060  14.8860760  36.5234730
  70.2144420  14.9989640  35.9498760  68.9942230  15.7229960  36.4778160
  75.9978870  17.0000030  39.5137040  75.1853380  16.6256920  39.1732920
  76.5020510  16.2445110  39.8158230  70.4399740  29.7477210  36.4653010
  69.9147360  30.1285240  35.7614970  70.3644320  30.3727980  37.1862720
  71.8290210  15.4124810  35.0636700  72.3582970  14.6254610  34.9344650
  72.4618530  16.0916000  35.2972230  74.0228050  15.1499950  38.1182090
  73.3930790  14.4487260  38.2852220  73.4833190  15.9104080  37.9015250
  74.1483610  14.4283930  50.5534580  73.8667880  14.9317530  49.7895400
  74.5303310  13.6305680  50.1876710  73.0392710  31.6959590  35.3402260
  73.7711530  31.4118870  34.7926150  73.2986380  31.4572870  36.2301640
  72.2007500  27.8124320  35.3448590  71.5716380  28.2809420  35.8934420
  72.3155330  26.9673540  35.7794780  71.8041090  23.9528810  24.2534820
  70.9725970  23.6977520  24.6531330  72.4122070  24.0239580  24.9892740
  71.7842350  27.9868900  24.4492840  72.0870390  27.0966640  24.2703060
  72.5285940  28.5439120  24.2215090  70.2133040  18.9130700  18.0377210
  69.3249740  19.2546670  17.9357090  70.4974230  18.7131020  17.1458040
  68.1766050  21.5136350  23.9216910  68.7482160  20.7458550  23.9220550
  68.1767590  21.8125110  23.0123520  69.4190920  16.9220710  25.7085840
  69.2393760  16.0246460  25.9888600  69.0171000  17.4692580  26.3832790
  72.3894430  17.4962200  19.0715590  72.4961180  18.3965930  19.3784350
  71.4786790  17.4480170  18.7810240  70.0377590  19.4181210  24.3168180
  70.7187700  19.6819580  24.9355580  69.7225640  18.5782080  24.6506190
  74.2302160  20.4648570  23.4040770  74.7380380  20.9629540  24.0445790
  74.7615400  19.6883770  23.2280130  72.5138260  15.1047130  27.6704190
  72.5156700  15.6219520  26.8650090  71.6842570  14.6277310  27.6474120
  73.7641110  24.7442310  25.8477690  73.4310490  25.3711230  26.4898760
  73.9407790  25.2704190  25.0679360  72.1953590  16.8157090  25.6774640
  72.5370400  17.6599140  25.3828510  71.2569400  16.9640830  25.7939980
  72.9760210  26.7123110  27.6626870  73.5934210  27.3874190  27.3811320
  72.1153330  27.1211090  27.5714370  68.2692550  25.9022970  16.5433720
  67.8920530  26.3910070  15.8118620  68.5265620  26.5748250  17.1740250
  75.8781480  14.3039360  22.0019230  76.1856460  13.7486250  21.2854730
  74.9482180  14.4383820  21.8192220  73.8718880  22.8952930  21.5199080
  73.4675880  22.1830180  21.0244980  73.9582000  22.5506170  22.4087120
  74.3400580  26.5820490  23.6838290  74.0428870  25.9765960  23.0046070
  75.2900400  26.6197800  23.5727650  72.5847500  19.6696140  25.2998120
  73.1362090  19.7791480  24.5251370  73.0991010  20.0433740  26.0153350
  73.4319010  26.3202180  30.3346090  72.5347540  26.5442150  30.5819490
  73.4571880  26.4437120  29.3857490  72.2590230  23.1915500  28.9103460
  72.1198000  24.0638300  29.2790860  71.3771590  22.8488310  28.7651400
  74.0570580  29.1337200  31.1188610  74.0286010  29.5380150  30.2517040
  73.8935550  28.2047560  30.9560210  70.5723510  21.7897910  19.0205730
  70.4521110  22.5160000  18.4087000  70.2624400  21.0200820  18.5433640
  68.2108880  24.9613050  24.8274370  68.2889300  25.0961820  23.8830090
  68.8250560  24.2528940  25.0202490  69.4556510  26.6613240  21.2380550
  69.0484590  26.8027830  20.3834150  70.3469520  26.3773400  21.0351760
  73.7278170  30.8759020  19.3503220  73.5520650  29.9594560  19.1371020
  72.8733910  31.2346310  19.5901020  68.2668400  26.0027220  27.3668830
  68.4299440  25.5332580  26.5488200  68.7320850  25.4950780  28.0317670
  73.0387170  15.1332980  22.4029400  72.5955320  15.9142520  22.0713920
  73.5972160  15.4562870  23.1100340  76.1545990  14.7543680  17.2835230
  75.5300170  14.7503550  18.0088540  76.0676110  13.8874640  16.8871200
  75.0763070  15.6780310  24.2619000  75.3735400  16.5843140  24.1811020
  75.6248630  15.1899090  23.6478570  72.8301390  20.2566550  20.1310650
  72.6042310  20.0403720  21.0357270  72.0493920  20.6895010  19.7856620
  75.2700600  21.1552130  30.7970920  75.1744200  20.2146860  30.6471320
  76.1132580  21.3767200  30.4018990  70.4011140  17.5665800  28.9504700
  70.0074530  18.4141010  29.1577480  69.7129540  16.9292170  29.1413340
  67.7028190  15.4894260  22.9834780  67.4141240  16.0597120  23.6959760
  68.4473950  15.0098710  23.3466010  67.8898420  19.4314380  14.1937500
  67.8073090  20.3745140  14.3352490  67.5381480  19.2889290  13.3149850
  75.6896550  18.1653410  23.2607850  75.6932610  17.7243360  22.4112390
  76.5847670  18.4870740  23.3679670  71.5398930  18.0479900  22.2202060
  71.1998980  18.5255130  22.9769110  70.7776250  17.5945020  21.8603160
  75.7516700  19.1665490  16.2514610  75.8729520  19.1251970  17.2000430
  75.3665210  20.0289640  16.0961340  74.7638200  21.4766630  15.6497910
  74.1955100  21.0284880  15.0233820  75.4727200  21.8359410  15.1163060
  69.8407380  25.3778650  29.5264640  69.4562170  24.7372320  30.1247600
  70.1519570  26.0814770  30.0959370  75.9904520  22.2255190  25.0073260
  76.3574650  21.7513760  25.7534600  75.8009580  23.0996760  25.3481600
  68.8545010  16.9698880  21.1366730  68.5691930  16.6054550  21.9745350
  68.7923870  16.2379340  20.5229870  73.7803890  21.2663830  27.3257470
  73.4760960  22.1455810  27.5507830  74.7350350  21.3263620  27.3614910
  72.3085680  25.4724820  17.9224320  71.5347940  24.9322440  17.7623040
  73.0380310  24.9531430  17.5842080  72.3523080  25.1405200  21.5603130
  72.8701750  24.3373460  21.5060020  71.9007100  25.0784340  22.4019960
  69.8367620  22.1066570  28.4728830  69.4782560  22.7720420  29.0602170
  69.5422180  21.2750120  28.8441450  73.0380740  22.5650810  31.3568380
  72.7380880  22.7107990  30.4596200  73.8091980  22.0056100  31.2641770
  76.2083270  26.4885010  19.6046350  76.8954400  27.0354220  19.9853940
  75.4215690  27.0325740  19.6395960  68.3475670  22.1057830  15.0963430
  69.2170520  22.3882630  15.3799350  67.8565990  22.9193700  14.9812240
  75.5110480  23.4931040  19.2171710  75.9673260  24.3036290  19.4431900
  75.1598690  23.1754180  20.0490200  71.4122260  13.8368690  19.6894230
  71.2836890  13.8286590  20.6379150  70.5884280  14.1751780  19.3385240
  68.7146920  31.3185210  15.6625060  69.0744560  31.9174550  15.0082330
  68.5739260  31.8645100  16.4360090  68.4116190  15.5959810  29.1500930
  67.6974710  15.7956730  29.7553540  68.8311230  14.8199380  29.5215730
  68.6988780  29.5840070  30.1367460  68.8079900  28.6434810  29.9962850
  68.0469340  29.8494820  29.4881190  76.6901370  27.8555960  31.5365580
  76.3698240  27.1365200  32.0811270  76.0159730  28.5311030  31.6101640
  74.7315540  28.7016410  16.4798730  74.7225640  29.4346100  15.8643240
  73.8113900  28.4547990  16.5725690  70.3322180  23.9231300  17.2245490
  69.7250130  24.6630200  17.2340790  70.8071530  24.0130660  16.3983690
  75.2401030  19.3225010  19.1247820  74.5317180  19.7911350  19.5661430
  75.5245510  18.6647020  19.7593010  76.3593250  31.2830970  19.8371590
  76.6134750  31.2452360  18.9150960  75.4105730  31.1564300  19.8299840
  73.4436050  17.6310090  16.4998530  74.2926580  18.0680240  16.4338720
  73.0767320  17.9430350  17.3270590  72.3427470  23.8842450  14.9734060
  73.1090740  23.7723810  15.5359490  72.4202160  23.1880420  14.3210830
  71.0374230  21.3167520  15.6566950  71.1177820  20.3695030  15.7684350
  71.9293980  21.6474400  15.7627610  71.8388940  31.4662910  22.7601490
  72.5751420  30.9178370  23.0310060  72.2229860  32.3318920  22.6207480
  68.7234420  27.5336480  18.6343000  67.7974200  27.7757620  18.6248410
  69.1890850  28.3610740  18.5127750  70.8447220  30.6508980  31.9487070
  71.6459950  30.9721030  32.3622470  70.3299040  30.2904560  32.6706980
  74.9491250  30.6393220  14.5827060  75.7419860  30.9282050  14.1308850
  74.4295600  30.2085390  13.9039540  68.5645030  23.1382440  30.8923120
  69.0684050  22.5589720  31.4639350  67.8252450  23.4222670  31.4299490
  75.4668650  25.8596630  14.4469410  75.3619290  25.2448980  15.1730790
  75.2992870  25.3362520  13.6632420  75.6182970  24.5453430  30.4258640
  74.8528640  25.1138430  30.3413310  75.7998930  24.2529640  29.5326870
  70.5968110  21.2812030  31.7873190  70.6373450  20.9825900  32.6958420
  71.4513610  21.6819640  31.6280710  74.3746500  23.8807580  16.9476700
  74.7962920  23.7147450  17.7908090  74.4997340  23.0707810  16.4531840
  72.5373920  19.8604130  29.7547680  72.0070380  19.3695080  29.1271020
  73.2061990  20.2888330  29.2205610  73.0246220  16.8266500  29.8344970
  72.9303090  16.2087250  29.1095840  72.4443610  17.5532790  29.6074880
  75.7907660  15.3839740  26.8672360  75.3424960  15.4064000  26.0217910
  75.1572860  14.9858760  27.4642660  76.1967210  24.2794070  27.4884800
  76.6155320  25.1226800  27.3161040  75.2775840  24.4166110  27.2591580
  73.2705400  19.9540810  13.8934860  73.0694460  19.0908170  14.2548200
  73.0997450  19.8674170  12.9556460  74.0474630  30.5847080  28.6042530
  73.5095720  31.3093140  28.2851230  74.3008590  30.1077420  27.8139870
  75.2999880  18.5531600  30.1298460  75.8899570  18.2447450  30.8176280
  74.4820120  18.0811350  30.2858360  72.0688200  17.0541430  13.8812740
  72.3714100  17.0608860  12.9731890  72.8082790  16.7039290  14.3780400
  76.9036840  31.8198290  28.8629180  76.8295540  32.7233430  29.1701550
  76.0015680  31.5010190  28.8351250  75.2873130  15.9976050  14.8668940
  74.9395130  15.3200040  14.2871390  75.4885900  15.5365560  15.6812330
  71.0918330  26.3583850  14.7142540  71.5293200  26.9013520  15.3700120
  71.5766060  25.5330800  14.7238880  68.3064130  29.1472880  22.1662800
  68.6367140  28.2793940  21.9341440  68.7355130  29.3531400  22.9967760
  72.9026050  27.4781890  19.8264770  72.6021590  27.3546860  20.7268680
  72.7963540  26.6190480  19.4180500  68.7954340  30.0143470  24.9044430
  68.3585330  30.1944270  25.7368580  69.3632020  30.7718090  24.7626150
  68.6278770  22.5263700  21.2633310  67.9727610  22.2575340  20.6193010
  69.4656720  22.4168180  20.8135290  69.6654700  22.9116270  25.8036650
  70.0327740  22.8243670  26.6832670  69.0965520  22.1482820  25.7043510
  69.2170700  19.8225360  29.7095070  68.3226750  19.7892120  30.0488780
  69.7568250  20.0212150  30.4746320  67.8416850  19.7362630  17.2058640
  66.9380930  19.9992830  17.0310300  68.3257470  20.0073800  16.4258600
  70.3844060  18.7928170  15.1153020  71.0935760  18.3711390  14.6300300
  69.6684000  18.8603400  14.4836370  70.0318220  14.8467500  14.1555670
  70.7546350  15.3876440  14.4736890  70.3042740  14.5730920  13.2797210
  69.7210410  14.0973690  24.0578290  70.3686600  13.5471070  23.6173450
  70.1412250  14.3516840  24.8794100  69.4742410  14.2529360  26.8003610
  69.1257230  14.7093180  27.5661790  69.1430110  13.3586490  26.8826040
  71.0806780  27.4248960  30.9656800  71.0376410  27.0541870  31.8471260
  71.2117790  28.3626530  31.1058620  74.7812810  28.9808550  26.5666520
  74.5404170  29.2483110  25.6797040  75.7215450  29.1514280  26.6217380
  70.1463050  13.7805560  30.0754380  70.6946040  13.5993610  29.3120490
  70.2118360  12.9899670  30.6110690  70.9194810  30.3711210  28.0854580
  70.3255130  30.2395910  28.8244620  70.9118650  29.5349350  27.6196680
  70.5507040  27.7369590  27.0362620  69.8241100  27.1174880  26.9688570
  70.6116190  28.1310200  26.1660700  74.1552140  29.9514590  23.8212030
  74.6717160  29.3401950  23.2960290  74.8049520  30.4543370  24.3123040
  68.8337040  31.0543980  20.2459380  68.6659080  30.4214660  20.9441270
  67.9671550  31.2603380  19.8953570  69.4565060  14.8860760  17.7491240
  70.2144420  14.9989640  17.1755270  68.9942230  15.7229960  17.7034670
  75.9978870  17.0000030  20.7393550  75.1853380  16.6256920  20.3989430
  76.5020510  16.2445110  21.0414740  70.4399740  29.7477210  17.6909520
  69.9147360  30.1285240  16.9871480  70.3644320  30.3727980  18.4119230
  71.8290210  15.4124810  16.2893210  72.3582970  14.6254610  16.1601160
  72.4618530  16.0916000  16.5228740  74.0228050  15.1499950  19.3438600
  73.3930790  14.4487260  19.5108730  73.4833190  15.9104080  19.1271760
  74.1483610  14.4283930  31.7791090  73.8667880  14.9317530  31.0151910
  74.5303310  13.6305680  31.4133220  73.0392710  31.6959590  16.5658770
  73.7711530  31.4118870  16.0182660  73.2986380  31.4572870  17.4558150
  72.2007500  27.8124320  16.5705100  71.5716380  28.2809420  17.1190930
  72.3155330  26.9673540  17.0051290  71.8041090  23.9528810   5.4791330
  70.9725970  23.6977520   5.8787840  72.4122070  24.0239580   6.2149250
  71.7842350  27.9868900   5.6749350  72.0870390  27.0966640   5.4959570
  72.5285940  28.5439120   5.4471600  68.1766050  21.5136350   5.1473420
  68.7482160  20.7458550   5.1477060  68.1767590  21.8125110   4.2380030
  69.4190920  16.9220710   6.9342350  69.2393760  16.0246460   7.2145110
  69.0171000  17.4692580   7.6089300  70.0377590  19.4181210   5.5424690
  70.7187700  19.6819580   6.1612090  69.7225640  18.5782080   5.8762700
  74.2302160  20.4648570   4.6297280  74.7380380  20.9629540   5.2702300
  74.7615400  19.6883770   4.4536640  72.5138260  15.1047130   8.8960700
  72.5156700  15.6219520   8.0906600  71.6842570  14.6277310   8.8730630
  73.7641110  24.7442310   7.0734200  73.4310490  25.3711230   7.7155270
  73.9407790  25.2704190   6.2935870  72.1953590  16.8157090   6.9031150
  72.5370400  17.6599140   6.6085020  71.2569400  16.9640830   7.0196490
  72.9760210  26.7123110   8.8883380  73.5934210  27.3874190   8.6067830
  72.1153330  27.1211090   8.7970880  75.8781480  14.3039360   3.2275740
  76.1856460  13.7486250   2.5111240  74.9482180  14.4383820   3.0448730
  73.8718880  22.8952930   2.7455590  73.4675880  22.1830180   2.2501490
  73.9582000  22.5506170   3.6343630  74.3400580  26.5820490   4.9094800
  74.0428870  25.9765960   4.2302580  75.2900400  26.6197800   4.7984160
  72.5847500  19.6696140   6.5254630  73.1362090  19.7791480   5.7507880
  73.0991010  20.0433740   7.2409860  73.4319010  26.3202180  11.5602600
  72.5347540  26.5442150  11.8076000  73.4571880  26.4437120  10.6114000
  72.2590230  23.1915500  10.1359970  72.1198000  24.0638300  10.5047370
  71.3771590  22.8488310   9.9907910  74.0570580  29.1337200  12.3445120
  74.0286010  29.5380150  11.4773550  73.8935550  28.2047560  12.1816720
  68.2108880  24.9613050   6.0530880  68.2889300  25.0961820   5.1086600
  68.8250560  24.2528940   6.2459000  68.2668400  26.0027220   8.5925340
  68.4299440  25.5332580   7.7744710  68.7320850  25.4950780   9.2574180
  73.0387170  15.1332980   3.6285910  72.5955320  15.9142520   3.2970430
  73.5972160  15.4562870   4.3356850  75.0763070  15.6780310   5.4875510
  75.3735400  16.5843140   5.4067530  75.6248630  15.1899090   4.8735080
  75.2700600  21.1552130  12.0227430  75.1744200  20.2146860  11.8727830
  76.1132580  21.3767200  11.6275500  70.4011140  17.5665800  10.1761210
  70.0074530  18.4141010  10.3833990  69.7129540  16.9292170  10.3669850
  67.7028190  15.4894260   4.2091290  67.4141240  16.0597120   4.9216270
  68.4473950  15.0098710   4.5722520  75.6896550  18.1653410   4.4864360
  75.6932610  17.7243360   3.6368900  76.5847670  18.4870740   4.5936180
  71.5398930  18.0479900   3.4458570  71.1998980  18.5255130   4.2025620
  70.7776250  17.5945020   3.0859670  69.8407380  25.3778650  10.7521150
  69.4562170  24.7372320  11.3504110  70.1519570  26.0814770  11.3215880
  75.9904520  22.2255190   6.2329770  76.3574650  21.7513760   6.9791110
  75.8009580  23.0996760   6.5738110  68.8545010  16.9698880   2.3623240
  68.5691930  16.6054550   3.2001860  68.7923870  16.2379340   1.7486380
  73.7803890  21.2663830   8.5513980  73.4760960  22.1455810   8.7764340
  74.7350350  21.3263620   8.5871420  72.3523080  25.1405200   2.7859640
  72.8701750  24.3373460   2.7316530  71.9007100  25.0784340   3.6276470
  69.8367620  22.1066570   9.6985340  69.4782560  22.7720420  10.2858680
  69.5422180  21.2750120  10.0697960  73.0380740  22.5650810  12.5824890
  72.7380880  22.7107990  11.6852710  73.8091980  22.0056100  12.4898280
  68.4116190  15.5959810  10.3757440  67.6974710  15.7956730  10.9810050
  68.8311230  14.8199380  10.7472240  68.6988780  29.5840070  11.3623970
  68.8079900  28.6434810  11.2219360  68.0469340  29.8494820  10.7137700
  76.6901370  27.8555960  12.7622090  76.3698240  27.1365200  13.3067780
  76.0159730  28.5311030  12.8358150  71.8388940  31.4662910   3.9858000
  72.5751420  30.9178370   4.2566570  72.2229860  32.3318920   3.8463990
  70.8447220  30.6508980  13.1743580  71.6459950  30.9721030  13.5878980
  70.3299040  30.2904560  13.8963490  68.5645030  23.1382440  12.1179630
  69.0684050  22.5589720  12.6895860  67.8252450  23.4222670  12.6556000
  75.6182970  24.5453430  11.6515150  74.8528640  25.1138430  11.5669820
  75.7998930  24.2529640  10.7583380  70.5968110  21.2812030  13.0129700
  70.6373450  20.9825900  13.9214930  71.4513610  21.6819640  12.8537220
  72.5373920  19.8604130  10.9804190  72.0070380  19.3695080  10.3527530
  73.2061990  20.2888330  10.4462120  73.0246220  16.8266500  11.0601480
  72.9303090  16.2087250  10.3352350  72.4443610  17.5532790  10.8331390
  75.7907660  15.3839740   8.0928870  75.3424960  15.4064000   7.2474420
  75.1572860  14.9858760   8.6899170  76.1967210  24.2794070   8.7141310
  76.6155320  25.1226800   8.5417550  75.2775840  24.4166110   8.4848090
  74.0474630  30.5847080   9.8299040  73.5095720  31.3093140   9.5107740
  74.3008590  30.1077420   9.0396380  75.2999880  18.5531600  11.3554970
  75.8899570  18.2447450  12.0432790  74.4820120  18.0811350  11.5114870
  76.9036840  31.8198290  10.0885690  76.8295540  32.7233430  10.3958060
  76.0015680  31.5010190  10.0607760  68.3064130  29.1472880   3.3919310
  68.6367140  28.2793940   3.1597950  68.7355130  29.3531400   4.2224270
  68.7954340  30.0143470   6.1300940  68.3585330  30.1944270   6.9625090
  69.3632020  30.7718090   5.9882660  68.6278770  22.5263700   2.4889820
  67.9727610  22.2575340   1.8449520  69.4656720  22.4168180   2.0391800
  69.6654700  22.9116270   7.0293160  70.0327740  22.8243670   7.9089180
  69.0965520  22.1482820   6.9300020  69.2170700  19.8225360  10.9351580
  68.3226750  19.7892120  11.2745290  69.7568250  20.0212150  11.7002830
  69.7210410  14.0973690   5.2834800  70.3686600  13.5471070   4.8429960
  70.1412250  14.3516840   6.1050610  69.4742410  14.2529360   8.0260120
  69.1257230  14.7093180   8.7918300  69.1430110  13.3586490   8.1082550
  71.0806780  27.4248960  12.1913310  71.0376410  27.0541870  13.0727770
  71.2117790  28.3626530  12.3315130  74.7812810  28.9808550   7.7923030
  74.5404170  29.2483110   6.9053550  75.7215450  29.1514280   7.8473890
  70.1463050  13.7805560  11.3010890  70.6946040  13.5993610  10.5377000
  70.2118360  12.9899670  11.8367200  70.9194810  30.3711210   9.3111090
  70.3255130  30.2395910  10.0501130  70.9118650  29.5349350   8.8453190
  70.5507040  27.7369590   8.2619130  69.8241100  27.1174880   8.1945080
  70.6116190  28.1310200   7.3917210  74.1552140  29.9514590   5.0468540
  74.6717160  29.3401950   4.5216800  74.8049520  30.4543370   5.5379550
  74.1483610  14.4283930  13.0047600  73.8667880  14.9317530  12.2408420
  74.5303310  13.6305680  12.6389730  71.8041090   5.1785320  80.5765290
  70.9725970   4.9234030  80.9761800  72.4122070   5.2496090  81.3123210
  71.7842350   9.2125410  80.7723310  72.0870390   8.3223150  80.5933530
  72.5285940   9.7695630  80.5445560  68.1766050   2.7392860  80.2447380
  68.7482160   1.9715060  80.2451020  68.1767590   3.0381620  79.3353990
  68.2692550   7.1279480  72.8664190  67.8920530   7.6166580  72.1349090
  68.5265620   7.8004760  73.4970720  73.8718880   4.1209440  77.8429550
  73.4675880   3.4086690  77.3475450  73.9582000   3.7762680  78.7317590
  74.3400580   7.8077000  80.0068760  74.0428870   7.2022470  79.3276540
  75.2900400   7.8454310  79.8958120  70.5723510   3.0154420  75.3436200
  70.4521110   3.7416510  74.7317470  70.2624400   2.2457330  74.8664110
  68.2108880   6.1869560  81.1504840  68.2889300   6.3218330  80.2060560
  68.8250560   5.4785450  81.3432960  69.4556510   7.8869750  77.5611020
  69.0484590   8.0284340  76.7064620  70.3469520   7.6029910  77.3582230
  73.7278170  12.1015530  75.6733690  73.5520650  11.1851070  75.4601490
  72.8733910  12.4602820  75.9131490  74.7638200   2.7023140  71.9728380
  74.1955100   2.2541390  71.3464290  75.4727200   3.0615920  71.4393530
  72.3085680   6.6981330  74.2454790  71.5347940   6.1578950  74.0853510
  73.0380310   6.1787940  73.9072550  72.3523080   6.3661710  77.8833600
  72.8701750   5.5629970  77.8290490  71.9007100   6.3040850  78.7250430
  76.2083270   7.7141520  75.9276820  76.8954400   8.2610730  76.3084410
  75.4215690   8.2582250  75.9626430  68.3475670   3.3314340  71.4193900
  69.2170520   3.6139140  71.7029820  67.8565990   4.1450210  71.3042710
  75.5110480   4.7187550  75.5402180  75.9673260   5.5292800  75.7662370
  75.1598690   4.4010690  76.3720670  68.7146920  12.5441720  71.9855530
  69.0744560  13.1431060  71.3312800  68.5739260  13.0901610  72.7590560
  74.7315540   9.9272920  72.8029200  74.7225640  10.6602610  72.1873710
  73.8113900   9.6804500  72.8956160  70.3322180   5.1487810  73.5475960
  69.7250130   5.8886710  73.5571260  70.8071530   5.2387170  72.7214160
  76.3593250  12.5087480  76.1602060  76.6134750  12.4708870  75.2381430
  75.4105730  12.3820810  76.1530310  72.3427470   5.1098960  71.2964530
  73.1090740   4.9980320  71.8589960  72.4202160   4.4136930  70.6441300
  71.8388940  12.6919420  79.0831960  72.5751420  12.1434880  79.3540530
  72.2229860  13.5575430  78.9437950  68.7234420   8.7592990  74.9573470
  67.7974200   9.0014130  74.9478880  69.1890850   9.5867250  74.8358220
  74.9491250  11.8649730  70.9057530  75.7419860  12.1538560  70.4539320
  74.4295600  11.4341900  70.2270010  75.4668650   7.0853140  70.7699880
  75.3619290   6.4705490  71.4961260  75.2992870   6.5619030  69.9862890
  74.3746500   5.1064090  73.2707170  74.7962920   4.9403960  74.1138560
  74.4997340   4.2964320  72.7762310  71.0918330   7.5840360  71.0373010
  71.5293200   8.1270030  71.6930590  71.5766060   6.7587310  71.0469350
  68.3064130  10.3729390  78.4893270  68.6367140   9.5050450  78.2571910
  68.7355130  10.5787910  79.3198230  72.9026050   8.7038400  76.1495240
  72.6021590   8.5803370  77.0499150  72.7963540   7.8446990  75.7410970
  68.6278770   3.7520210  77.5863780  67.9727610   3.4831850  76.9423480
  69.4656720   3.6424690  77.1365760  74.1552140  11.1771100  80.1442500
  74.6717160  10.5658460  79.6190760  74.8049520  11.6799880  80.6353510
  68.8337040  12.2800490  76.5689850  68.6659080  11.6471170  77.2671740
  67.9671550  12.4859890  76.2184040  70.4399740  10.9733720  74.0139990
  69.9147360  11.3541750  73.3101950  70.3644320  11.5984490  74.7349700
  73.0392710  12.9216100  72.8889240  73.7711530  12.6375380  72.3413130
  73.2986380  12.6829380  73.7788620  72.2007500   9.0380830  72.8935570
  71.5716380   9.5065930  73.4421400  72.3155330   8.1930050  73.3281760
  71.8041090   5.1785320  61.8021800  70.9725970   4.9234030  62.2018310
  72.4122070   5.2496090  62.5379720  71.7842350   9.2125410  61.9979820
  72.0870390   8.3223150  61.8190040  72.5285940   9.7695630  61.7702070
  68.1766050   2.7392860  61.4703890  68.7482160   1.9715060  61.4707530
  68.1767590   3.0381620  60.5610500  73.7641110   5.9698820  63.3964670
  73.4310490   6.5967740  64.0385740  73.9407790   6.4960700  62.6166340
  72.9760210   7.9379620  65.2113850  73.5934210   8.6130700  64.9298300
  72.1153330   8.3467600  65.1201350  68.2692550   7.1279480  54.0920700
  67.8920530   7.6166580  53.3605600  68.5265620   7.8004760  54.7227230
  73.8718880   4.1209440  59.0686060  73.4675880   3.4086690  58.5731960
  73.9582000   3.7762680  59.9574100  74.3400580   7.8077000  61.2325270
  74.0428870   7.2022470  60.5533050  75.2900400   7.8454310  61.1214630
  73.4319010   7.5458690  67.8833070  72.5347540   7.7698660  68.1306470
  73.4571880   7.6693630  66.9344470  72.2590230   4.4172010  66.4590440
  72.1198000   5.2894810  66.8277840  71.3771590   4.0744820  66.3138380
  74.0570580  10.3593710  68.6675590  74.0286010  10.7636660  67.8004020
  73.8935550   9.4304070  68.5047190  70.5723510   3.0154420  56.5692710
  70.4521110   3.7416510  55.9573980  70.2624400   2.2457330  56.0920620
  68.2108880   6.1869560  62.3761350  68.2889300   6.3218330  61.4317070
  68.8250560   5.4785450  62.5689470  69.4556510   7.8869750  58.7867530
  69.0484590   8.0284340  57.9321130  70.3469520   7.6029910  58.5838740
  73.7278170  12.1015530  56.8990200  73.5520650  11.1851070  56.6858000
  72.8733910  12.4602820  57.1388000  68.2668400   7.2283730  64.9155810
  68.4299440   6.7589090  64.0975180  68.7320850   6.7207290  65.5804650
  74.7638200   2.7023140  53.1984890  74.1955100   2.2541390  52.5720800
  75.4727200   3.0615920  52.6650040  69.8407380   6.6035160  67.0751620
  69.4562170   5.9628830  67.6734580  70.1519570   7.3071280  67.6446350
  75.9904520   3.4511700  62.5560240  76.3574650   2.9770270  63.3021580
  75.8009580   4.3253270  62.8968580  73.7803890   2.4920340  64.8744450
  73.4760960   3.3712320  65.0994810  74.7350350   2.5520130  64.9101890
  72.3085680   6.6981330  55.4711300  71.5347940   6.1578950  55.3110020
  73.0380310   6.1787940  55.1329060  72.3523080   6.3661710  59.1090110
  72.8701750   5.5629970  59.0547000  71.9007100   6.3040850  59.9506940
  69.8367620   3.3323080  66.0215810  69.4782560   3.9976930  66.6089150
  69.5422180   2.5006630  66.3928430  73.0380740   3.7907320  68.9055360
  72.7380880   3.9364500  68.0083180  73.8091980   3.2312610  68.8128750
  76.2083270   7.7141520  57.1533330  76.8954400   8.2610730  57.5340920
  75.4215690   8.2582250  57.1882940  68.3475670   3.3314340  52.6450410
  69.2170520   3.6139140  52.9286330  67.8565990   4.1450210  52.5299220
  75.5110480   4.7187550  56.7658690  75.9673260   5.5292800  56.9918880
  75.1598690   4.4010690  57.5977180  68.7146920  12.5441720  53.2112040
  69.0744560  13.1431060  52.5569310  68.5739260  13.0901610  53.9847070
  68.6988780  10.8096580  67.6854440  68.8079900   9.8691320  67.5449830
  68.0469340  11.0751330  67.0368170  76.6901370   9.0812470  69.0852560
  76.3698240   8.3621710  69.6298250  76.0159730   9.7567540  69.1588620
  74.7315540   9.9272920  54.0285710  74.7225640  10.6602610  53.4130220
  73.8113900   9.6804500  54.1212670  70.3322180   5.1487810  54.7732470
  69.7250130   5.8886710  54.7827770  70.8071530   5.2387170  53.9470670
  76.3593250  12.5087480  57.3858570  76.6134750  12.4708870  56.4637940
  75.4105730  12.3820810  57.3786820  72.3427470   5.1098960  52.5221040
  73.1090740   4.9980320  53.0846470  72.4202160   4.4136930  51.8697810
  71.8388940  12.6919420  60.3088470  72.5751420  12.1434880  60.5797040
  72.2229860  13.5575430  60.1694460  68.7234420   8.7592990  56.1829980
  67.7974200   9.0014130  56.1735390  69.1890850   9.5867250  56.0614730
  70.8447220  11.8765490  69.4974050  71.6459950  12.1977540  69.9109450
  70.3299040  11.5161070  70.2193960  74.9491250  11.8649730  52.1314040
  75.7419860  12.1538560  51.6795830  74.4295600  11.4341900  51.4526520
  68.5645030   4.3638950  68.4410100  69.0684050   3.7846230  69.0126330
  67.8252450   4.6479180  68.9786470  75.4668650   7.0853140  51.9956390
  75.3619290   6.4705490  52.7217770  75.2992870   6.5619030  51.2119400
  75.6182970   5.7709940  67.9745620  74.8528640   6.3394940  67.8900290
  75.7998930   5.4786150  67.0813850  70.5968110   2.5068540  69.3360170
  70.6373450   2.2082410  70.2445400  71.4513610   2.9076150  69.1767690
  74.3746500   5.1064090  54.4963680  74.7962920   4.9403960  55.3395070
  74.4997340   4.2964320  54.0018820  76.1967210   5.5050580  65.0371780
  76.6155320   6.3483310  64.8648020  75.2775840   5.6422620  64.8078560
  74.0474630  11.8103590  66.1529510  73.5095720  12.5349650  65.8338210
  74.3008590  11.3333930  65.3626850  76.9036840  13.0454800  66.4116160
  76.8295540  13.9489940  66.7188530  76.0015680  12.7266700  66.3838230
  71.0918330   7.5840360  52.2629520  71.5293200   8.1270030  52.9187100
  71.5766060   6.7587310  52.2725860  68.3064130  10.3729390  59.7149780
  68.6367140   9.5050450  59.4828420  68.7355130  10.5787910  60.5454740
  72.9026050   8.7038400  57.3751750  72.6021590   8.5803370  58.2755660
  72.7963540   7.8446990  56.9667480  68.7954340  11.2399980  62.4531410
  68.3585330  11.4200780  63.2855560  69.3632020  11.9974600  62.3113130
  68.6278770   3.7520210  58.8120290  67.9727610   3.4831850  58.1679990
  69.4656720   3.6424690  58.3622270  69.6654700   4.1372780  63.3523630
  70.0327740   4.0500180  64.2319650  69.0965520   3.3739330  63.2530490
  71.0806780   8.6505470  68.5143780  71.0376410   8.2798380  69.3958240
  71.2117790   9.5883040  68.6545600  74.7812810  10.2065060  64.1153500
  74.5404170  10.4739620  63.2284020  75.7215450  10.3770790  64.1704360
  70.9194810  11.5967720  65.6341560  70.3255130  11.4652420  66.3731600
  70.9118650  10.7605860  65.1683660  70.5507040   8.9626100  64.5849600
  69.8241100   8.3431390  64.5175550  70.6116190   9.3566710  63.7147680
  74.1552140  11.1771100  61.3699010  74.6717160  10.5658460  60.8447270
  74.8049520  11.6799880  61.8610020  68.8337040  12.2800490  57.7946360
  68.6659080  11.6471170  58.4928250  67.9671550  12.4859890  57.4440550
  70.4399740  10.9733720  55.2396500  69.9147360  11.3541750  54.5358460
  70.3644320  11.5984490  55.9606210  73.0392710  12.9216100  54.1145750
  73.7711530  12.6375380  53.5669640  73.2986380  12.6829380  55.0045130
  72.2007500   9.0380830  54.1192080  71.5716380   9.5065930  54.6677910
  72.3155330   8.1930050  54.5538270  71.8041090   5.1785320  43.0278310
  70.9725970   4.9234030  43.4274820  72.4122070   5.2496090  43.7636230
  71.7842350   9.2125410  43.2236330  72.0870390   8.3223150  43.0446550
  72.5285940   9.7695630  42.9958580  68.1766050   2.7392860  42.6960400
  68.7482160   1.9715060  42.6964040  68.1767590   3.0381620  41.7867010
  73.7641110   5.9698820  44.6221180  73.4310490   6.5967740  45.2642250
  73.9407790   6.4960700  43.8422850  72.9760210   7.9379620  46.4370360
  73.5934210   8.6130700  46.1554810  72.1153330   8.3467600  46.3457860
  68.2692550   7.1279480  35.3177210  67.8920530   7.6166580  34.5862110
  68.5265620   7.8004760  35.9483740  73.8718880   4.1209440  40.2942570
  73.4675880   3.4086690  39.7988470  73.9582000   3.7762680  41.1830610
  74.3400580   7.8077000  42.4581780  74.0428870   7.2022470  41.7789560
  75.2900400   7.8454310  42.3471140  73.4319010   7.5458690  49.1089580
  72.5347540   7.7698660  49.3562980  73.4571880   7.6693630  48.1600980
  72.2590230   4.4172010  47.6846950  72.1198000   5.2894810  48.0534350
  71.3771590   4.0744820  47.5394890  74.0570580  10.3593710  49.8932100
  74.0286010  10.7636660  49.0260530  73.8935550   9.4304070  49.7303700
  70.5723510   3.0154420  37.7949220  70.4521110   3.7416510  37.1830490
  70.2624400   2.2457330  37.3177130  68.2108880   6.1869560  43.6017860
  68.2889300   6.3218330  42.6573580  68.8250560   5.4785450  43.7945980
  69.4556510   7.8869750  40.0124040  69.0484590   8.0284340  39.1577640
  70.3469520   7.6029910  39.8095250  73.7278170  12.1015530  38.1246710
  73.5520650  11.1851070  37.9114510  72.8733910  12.4602820  38.3644510
  68.2668400   7.2283730  46.1412320  68.4299440   6.7589090  45.3231690
  68.7320850   6.7207290  46.8061160  74.7638200   2.7023140  34.4241400
  74.1955100   2.2541390  33.7977310  75.4727200   3.0615920  33.8906550
  69.8407380   6.6035160  48.3008130  69.4562170   5.9628830  48.8991090
  70.1519570   7.3071280  48.8702860  75.9904520   3.4511700  43.7816750
  76.3574650   2.9770270  44.5278090  75.8009580   4.3253270  44.1225090
  73.7803890   2.4920340  46.1000960  73.4760960   3.3712320  46.3251320
  74.7350350   2.5520130  46.1358400  72.3085680   6.6981330  36.6967810
  71.5347940   6.1578950  36.5366530  73.0380310   6.1787940  36.3585570
  72.3523080   6.3661710  40.3346620  72.8701750   5.5629970  40.2803510
  71.9007100   6.3040850  41.1763450  69.8367620   3.3323080  47.2472320
  69.4782560   3.9976930  47.8345660  69.5422180   2.5006630  47.6184940
  73.0380740   3.7907320  50.1311870  72.7380880   3.9364500  49.2339690
  73.8091980   3.2312610  50.0385260  76.2083270   7.7141520  38.3789840
  76.8954400   8.2610730  38.7597430  75.4215690   8.2582250  38.4139450
  68.3475670   3.3314340  33.8706920  69.2170520   3.6139140  34.1542840
  67.8565990   4.1450210  33.7555730  75.5110480   4.7187550  37.9915200
  75.9673260   5.5292800  38.2175390  75.1598690   4.4010690  38.8233690
  68.7146920  12.5441720  34.4368550  69.0744560  13.1431060  33.7825820
  68.5739260  13.0901610  35.2103580  68.6988780  10.8096580  48.9110950
  68.8079900   9.8691320  48.7706340  68.0469340  11.0751330  48.2624680
  76.6901370   9.0812470  50.3109070  76.3698240   8.3621710  50.8554760
  76.0159730   9.7567540  50.3845130  74.7315540   9.9272920  35.2542220
  74.7225640  10.6602610  34.6386730  73.8113900   9.6804500  35.3469180
  70.3322180   5.1487810  35.9988980  69.7250130   5.8886710  36.0084280
  70.8071530   5.2387170  35.1727180  76.3593250  12.5087480  38.6115080
  76.6134750  12.4708870  37.6894450  75.4105730  12.3820810  38.6043330
  72.3427470   5.1098960  33.7477550  73.1090740   4.9980320  34.3102980
  72.4202160   4.4136930  33.0954320  71.8388940  12.6919420  41.5344980
  72.5751420  12.1434880  41.8053550  72.2229860  13.5575430  41.3950970
  68.7234420   8.7592990  37.4086490  67.7974200   9.0014130  37.3991900
  69.1890850   9.5867250  37.2871240  70.8447220  11.8765490  50.7230560
  71.6459950  12.1977540  51.1365960  70.3299040  11.5161070  51.4450470
  74.9491250  11.8649730  33.3570550  75.7419860  12.1538560  32.9052340
  74.4295600  11.4341900  32.6783030  68.5645030   4.3638950  49.6666610
  69.0684050   3.7846230  50.2382840  67.8252450   4.6479180  50.2042980
  75.4668650   7.0853140  33.2212900  75.3619290   6.4705490  33.9474280
  75.2992870   6.5619030  32.4375910  75.6182970   5.7709940  49.2002130
  74.8528640   6.3394940  49.1156800  75.7998930   5.4786150  48.3070360
  70.5968110   2.5068540  50.5616680  70.6373450   2.2082410  51.4701910
  71.4513610   2.9076150  50.4024200  74.3746500   5.1064090  35.7220190
  74.7962920   4.9403960  36.5651580  74.4997340   4.2964320  35.2275330
  76.1967210   5.5050580  46.2628290  76.6155320   6.3483310  46.0904530
  75.2775840   5.6422620  46.0335070  74.0474630  11.8103590  47.3786020
  73.5095720  12.5349650  47.0594720  74.3008590  11.3333930  46.5883360
  76.9036840  13.0454800  47.6372670  76.8295540  13.9489940  47.9445040
  76.0015680  12.7266700  47.6094740  71.0918330   7.5840360  33.4886030
  71.5293200   8.1270030  34.1443610  71.5766060   6.7587310  33.4982370
  68.3064130  10.3729390  40.9406290  68.6367140   9.5050450  40.7084930
  68.7355130  10.5787910  41.7711250  72.9026050   8.7038400  38.6008260
  72.6021590   8.5803370  39.5012170  72.7963540   7.8446990  38.1923990
  68.7954340  11.2399980  43.6787920  68.3585330  11.4200780  44.5112070
  69.3632020  11.9974600  43.5369640  68.6278770   3.7520210  40.0376800
  67.9727610   3.4831850  39.3936500  69.4656720   3.6424690  39.5878780
  69.6654700   4.1372780  44.5780140  70.0327740   4.0500180  45.4576160
  69.0965520   3.3739330  44.4787000  71.0806780   8.6505470  49.7400290
  71.0376410   8.2798380  50.6214750  71.2117790   9.5883040  49.8802110
  74.7812810  10.2065060  45.3410010  74.5404170  10.4739620  44.4540530
  75.7215450  10.3770790  45.3960870  70.9194810  11.5967720  46.8598070
  70.3255130  11.4652420  47.5988110  70.9118650  10.7605860  46.3940170
  70.5507040   8.9626100  45.8106110  69.8241100   8.3431390  45.7432060
  70.6116190   9.3566710  44.9404190  74.1552140  11.1771100  42.5955520
  74.6717160  10.5658460  42.0703780  74.8049520  11.6799880  43.0866530
  68.8337040  12.2800490  39.0202870  68.6659080  11.6471170  39.7184760
  67.9671550  12.4859890  38.6697060  70.4399740  10.9733720  36.4653010
  69.9147360  11.3541750  35.7614970  70.3644320  11.5984490  37.1862720
  73.0392710  12.9216100  35.3402260  73.7711530  12.6375380  34.7926150
  73.2986380  12.6829380  36.2301640  72.2007500   9.0380830  35.3448590
  71.5716380   9.5065930  35.8934420  72.3155330   8.1930050  35.7794780
  71.8041090   5.1785320  24.2534820  70.9725970   4.9234030  24.6531330
  72.4122070   5.2496090  24.9892740  71.7842350   9.2125410  24.4492840
  72.0870390   8.3223150  24.2703060  72.5285940   9.7695630  24.2215090
  68.1766050   2.7392860  23.9216910  68.7482160   1.9715060  23.9220550
  68.1767590   3.0381620  23.0123520  73.7641110   5.9698820  25.8477690
  73.4310490   6.5967740  26.4898760  73.9407790   6.4960700  25.0679360
  72.9760210   7.9379620  27.6626870  73.5934210   8.6130700  27.3811320
  72.1153330   8.3467600  27.5714370  68.2692550   7.1279480  16.5433720
  67.8920530   7.6166580  15.8118620  68.5265620   7.8004760  17.1740250
  73.8718880   4.1209440  21.5199080  73.4675880   3.4086690  21.0244980
  73.9582000   3.7762680  22.4087120  74.3400580   7.8077000  23.6838290
  74.0428870   7.2022470  23.0046070  75.2900400   7.8454310  23.5727650
  73.4319010   7.5458690  30.3346090  72.5347540   7.7698660  30.5819490
  73.4571880   7.6693630  29.3857490  72.2590230   4.4172010  28.9103460
  72.1198000   5.2894810  29.2790860  71.3771590   4.0744820  28.7651400
  74.0570580  10.3593710  31.1188610  74.0286010  10.7636660  30.2517040
  73.8935550   9.4304070  30.9560210  70.5723510   3.0154420  19.0205730
  70.4521110   3.7416510  18.4087000  70.2624400   2.2457330  18.5433640
  68.2108880   6.1869560  24.8274370  68.2889300   6.3218330  23.8830090
  68.8250560   5.4785450  25.0202490  69.4556510   7.8869750  21.2380550
  69.0484590   8.0284340  20.3834150  70.3469520   7.6029910  21.0351760
  73.7278170  12.1015530  19.3503220  73.5520650  11.1851070  19.1371020
  72.8733910  12.4602820  19.5901020  68.2668400   7.2283730  27.3668830
  68.4299440   6.7589090  26.5488200  68.7320850   6.7207290  28.0317670
  74.7638200   2.7023140  15.6497910  74.1955100   2.2541390  15.0233820
  75.4727200   3.0615920  15.1163060  69.8407380   6.6035160  29.5264640
  69.4562170   5.9628830  30.1247600  70.1519570   7.3071280  30.0959370
  75.9904520   3.4511700  25.0073260  76.3574650   2.9770270  25.7534600
  75.8009580   4.3253270  25.3481600  73.7803890   2.4920340  27.3257470
  73.4760960   3.3712320  27.5507830  74.7350350   2.5520130  27.3614910
  72.3085680   6.6981330  17.9224320  71.5347940   6.1578950  17.7623040
  73.0380310   6.1787940  17.5842080  72.3523080   6.3661710  21.5603130
  72.8701750   5.5629970  21.5060020  71.9007100   6.3040850  22.4019960
  69.8367620   3.3323080  28.4728830  69.4782560   3.9976930  29.0602170
  69.5422180   2.5006630  28.8441450  73.0380740   3.7907320  31.3568380
  72.7380880   3.9364500  30.4596200  73.8091980   3.2312610  31.2641770
  76.2083270   7.7141520  19.6046350  76.8954400   8.2610730  19.9853940
  75.4215690   8.2582250  19.6395960  68.3475670   3.3314340  15.0963430
  69.2170520   3.6139140  15.3799350  67.8565990   4.1450210  14.9812240
  75.5110480   4.7187550  19.2171710  75.9673260   5.5292800  19.4431900
  75.1598690   4.4010690  20.0490200  68.7146920  12.5441720  15.6625060
  69.0744560  13.1431060  15.0082330  68.5739260  13.0901610  16.4360090
  68.6988780  10.8096580  30.1367460  68.8079900   9.8691320  29.9962850
  68.0469340  11.0751330  29.4881190  76.6901370   9.0812470  31.5365580
  76.3698240   8.3621710  32.0811270  76.0159730   9.7567540  31.6101640
  74.7315540   9.9272920  16.4798730  74.7225640  10.6602610  15.8643240
  73.8113900   9.6804500  16.5725690  70.3322180   5.1487810  17.2245490
  69.7250130   5.8886710  17.2340790  70.8071530   5.2387170  16.3983690
  76.3593250  12.5087480  19.8371590  76.6134750  12.4708870  18.9150960
  75.4105730  12.3820810  19.8299840  72.3427470   5.1098960  14.9734060
  73.1090740   4.9980320  15.5359490  72.4202160   4.4136930  14.3210830
  71.8388940  12.6919420  22.7601490  72.5751420  12.1434880  23.0310060
  72.2229860  13.5575430  22.6207480  68.7234420   8.7592990  18.6343000
  67.7974200   9.0014130  18.6248410  69.1890850   9.5867250  18.5127750
  70.8447220  11.8765490  31.9487070  71.6459950  12.1977540  32.3622470
  70.3299040  11.5161070  32.6706980  74.9491250  11.8649730  14.5827060
  75.7419860  12.1538560  14.1308850  74.4295600  11.4341900  13.9039540
  68.5645030   4.3638950  30.8923120  69.0684050   3.7846230  31.4639350
  67.8252450   4.6479180  31.4299490  75.4668650   7.0853140  14.4469410
  75.3619290   6.4705490  15.1730790  75.2992870   6.5619030  13.6632420
  75.6182970   5.7709940  30.4258640  74.8528640   6.3394940  30.3413310
  75.7998930   5.4786150  29.5326870  70.5968110   2.5068540  31.7873190
  70.6373450   2.2082410  32.6958420  71.4513610   2.9076150  31.6280710
  74.3746500   5.1064090  16.9476700  74.7962920   4.9403960  17.7908090
  74.4997340   4.2964320  16.4531840  76.1967210   5.5050580  27.4884800
  76.6155320   6.3483310  27.3161040  75.2775840   5.6422620  27.2591580
  74.0474630  11.8103590  28.6042530  73.5095720  12.5349650  28.2851230
  74.3008590  11.3333930  27.8139870  76.9036840  13.0454800  28.8629180
  76.8295540  13.9489940  29.1701550  76.0015680  12.7266700  28.8351250
  71.0918330   7.5840360  14.7142540  71.5293200   8.1270030  15.3700120
  71.5766060   6.7587310  14.7238880  68.3064130  10.3729390  22.1662800
  68.6367140   9.5050450  21.9341440  68.7355130  10.5787910  22.9967760
  72.9026050   8.7038400  19.8264770  72.6021590   8.5803370  20.7268680
  72.7963540   7.8446990  19.4180500  68.7954340  11.2399980  24.9044430
  68.3585330  11.4200780  25.7368580  69.3632020  11.9974600  24.7626150
  68.6278770   3.7520210  21.2633310  67.9727610   3.4831850  20.6193010
  69.4656720   3.6424690  20.8135290  69.6654700   4.1372780  25.8036650
  70.0327740   4.0500180  26.6832670  69.0965520   3.3739330  25.7043510
  71.0806780   8.6505470  30.9656800  71.0376410   8.2798380  31.8471260
  71.2117790   9.5883040  31.1058620  74.7812810  10.2065060  26.5666520
  74.5404170  10.4739620  25.6797040  75.7215450  10.3770790  26.6217380
  70.9194810  11.5967720  28.0854580  70.3255130  11.4652420  28.8244620
  70.9118650  10.7605860  27.6196680  70.5507040   8.9626100  27.0362620
  69.8241100   8.3431390  26.9688570  70.6116190   9.3566710  26.1660700
  74.1552140  11.1771100  23.8212030  74.6717160  10.5658460  23.2960290
  74.8049520  11.6799880  24.3123040  68.8337040  12.2800490  20.2459380
  68.6659080  11.6471170  20.9441270  67.9671550  12.4859890  19.8953570
  70.4399740  10.9733720  17.6909520  69.9147360  11.3541750  16.9871480
  70.3644320  11.5984490  18.4119230  73.0392710  12.9216100  16.5658770
  73.7711530  12.6375380  16.0182660  73.2986380  12.6829380  17.4558150
  72.2007500   9.0380830  16.5705100  71.5716380   9.5065930  17.1190930
  72.3155330   8.1930050  17.0051290  71.8041090   5.1785320   5.4791330
  70.9725970   4.9234030   5.8787840  72.4122070   5.2496090   6.2149250
  71.7842350   9.2125410   5.6749350  72.0870390   8.3223150   5.4959570
  72.5285940   9.7695630   5.4471600  68.1766050   2.7392860   5.1473420
  68.7482160   1.9715060   5.1477060  68.1767590   3.0381620   4.2380030
  73.7641110   5.9698820   7.0734200  73.4310490   6.5967740   7.7155270
  73.9407790   6.4960700   6.2935870  72.9760210   7.9379620   8.8883380
  73.5934210   8.6130700   8.6067830  72.1153330   8.3467600   8.7970880
  73.8718880   4.1209440   2.7455590  73.4675880   3.4086690   2.2501490
  73.9582000   3.7762680   3.6343630  74.3400580   7.8077000   4.9094800
  74.0428870   7.2022470   4.2302580  75.2900400   7.8454310   4.7984160
  73.4319010   7.5458690  11.5602600  72.5347540   7.7698660  11.8076000
  73.4571880   7.6693630  10.6114000  72.2590230   4.4172010  10.1359970
  72.1198000   5.2894810  10.5047370  71.3771590   4.0744820   9.9907910
  74.0570580  10.3593710  12.3445120  74.0286010  10.7636660  11.4773550
  73.8935550   9.4304070  12.1816720  68.2108880   6.1869560   6.0530880
  68.2889300   6.3218330   5.1086600  68.8250560   5.4785450   6.2459000
  68.2668400   7.2283730   8.5925340  68.4299440   6.7589090   7.7744710
  68.7320850   6.7207290   9.2574180  69.8407380   6.6035160  10.7521150
  69.4562170   5.9628830  11.3504110  70.1519570   7.3071280  11.3215880
  75.9904520   3.4511700   6.2329770  76.3574650   2.9770270   6.9791110
  75.8009580   4.3253270   6.5738110  73.7803890   2.4920340   8.5513980
  73.4760960   3.3712320   8.7764340  74.7350350   2.5520130   8.5871420
  72.3523080   6.3661710   2.7859640  72.8701750   5.5629970   2.7316530
  71.9007100   6.3040850   3.6276470  69.8367620   3.3323080   9.6985340
  69.4782560   3.9976930  10.2858680  69.5422180   2.5006630  10.0697960
  73.0380740   3.7907320  12.5824890  72.7380880   3.9364500  11.6852710
  73.8091980   3.2312610  12.4898280  68.6988780  10.8096580  11.3623970
  68.8079900   9.8691320  11.2219360  68.0469340  11.0751330  10.7137700
  76.6901370   9.0812470  12.7622090  76.3698240   8.3621710  13.3067780
  76.0159730   9.7567540  12.8358150  71.8388940  12.6919420   3.9858000
  72.5751420  12.1434880   4.2566570  72.2229860  13.5575430   3.8463990
  70.8447220  11.8765490  13.1743580  71.6459950  12.1977540  13.5878980
  70.3299040  11.5161070  13.8963490  68.5645030   4.3638950  12.1179630
  69.0684050   3.7846230  12.6895860  67.8252450   4.6479180  12.6556000
  75.6182970   5.7709940  11.6515150  74.8528640   6.3394940  11.5669820
  75.7998930   5.4786150  10.7583380  70.5968110   2.5068540  13.0129700
  70.6373450   2.2082410  13.9214930  71.4513610   2.9076150  12.8537220
  76.1967210   5.5050580   8.7141310  76.6155320   6.3483310   8.5417550
  75.2775840   5.6422620   8.4848090  74.0474630  11.8103590   9.8299040
  73.5095720  12.5349650   9.5107740  74.3008590  11.3333930   9.0396380
  76.9036840  13.0454800  10.0885690  76.8295540  13.9489940  10.3958060
  76.0015680  12.7266700  10.0607760  68.3064130  10.3729390   3.3919310
  68.6367140   9.5050450   3.1597950  68.7355130  10.5787910   4.2224270
  68.7954340  11.2399980   6.1300940  68.3585330  11.4200780   6.9625090
  69.3632020  11.9974600   5.9882660  68.6278770   3.7520210   2.4889820
  67.9727610   3.4831850   1.8449520  69.4656720   3.6424690   2.0391800
  69.6654700   4.1372780   7.0293160  70.0327740   4.0500180   7.9089180
  69.0965520   3.3739330   6.9300020  71.0806780   8.6505470  12.1913310
  71.0376410   8.2798380  13.0727770  71.2117790   9.5883040  12.3315130
  74.7812810  10.2065060   7.7923030  74.5404170  10.4739620   6.9053550
  75.7215450  10.3770790   7.8473890  70.9194810  11.5967720   9.3111090
  70.3255130  11.4652420  10.0501130  70.9118650  10.7605860   8.8453190
  70.5507040   8.9626100   8.2619130  69.8241100   8.3431390   8.1945080
  70.6116190   9.3566710   7.3917210  74.1552140  11.1771100   5.0468540
  74.6717160  10.5658460   4.5216800  74.8049520  11.6799880   5.5379550
  60.8813730  78.1860450  77.8180260  60.8007780  77.2715060  77.5471970
  60.4678150  78.6827520  77.1119970  59.0131770  79.9639470  79.6989530
  58.2373870  79.4839910  79.9888100  59.6644700  79.2845120  79.5245690
  53.0297600  80.2759280  80.5765290  52.1982480  80.0207990  80.9761800
  53.6378580  80.3470050  81.3123210  51.4389550  75.2361170  74.3607680
  50.5506250  75.5777140  74.2587560  51.7230740  75.0361490  73.4688510
  49.4022560  77.8366820  80.2447380  49.9738670  77.0689020  80.2451020
  49.4024100  78.1355580  79.3353990  59.4845930  75.4467040  79.9328620
  59.8610750  74.5738920  79.8202290  59.3865440  75.7825740  79.0419060
  53.6150940  73.8192670  75.3946060  53.7217690  74.7196400  75.7014820
  52.7043300  73.7710640  75.1040710  63.2670050  72.9417480  76.8656960
  64.0879670  72.4514050  76.9082440  63.3004130  73.5315140  77.6188800
  51.2634100  75.7411680  80.6398650  51.9444210  76.0050050  81.2586050
  50.9482150  74.9012550  80.9736660  55.4558670  76.7879040  79.7271240
  55.9636890  77.2860010  80.3676260  55.9871910  76.0114240  79.5510600
  63.5031530  74.8817860  79.6384500  62.7987100  75.1702750  80.2187610
  63.8643690  75.6917970  79.2784060  66.5718450  74.3272650  80.0293710
  65.6243360  74.3611630  80.1609140  66.8968440  75.1411600  80.4143070
  57.1037990  70.6269830  78.3249700  57.4112970  70.0716720  77.6085200
  56.1738690  70.7614290  78.1422690  59.4918750  78.6918660  75.0609820
  58.5648030  78.6256040  75.2898290  59.6443570  79.6298790  74.9465060
  59.4787830  74.9635660  72.0576980  58.5391500  75.1249620  72.1429440
  59.7971090  75.6821340  71.5112970  66.0000590  79.6454180  82.0356010
  65.1719220  79.7147270  81.5606140  66.5951070  80.2308490  81.5671840
  63.5216040  80.2538960  75.5645070  62.9028460  79.9158510  74.9171370
  63.5040490  79.6098720  76.2724260  55.0975390  79.2183400  77.8429550
  54.6932390  78.5060650  77.3475450  55.1838510  78.8736640  78.7317590
  61.6980740  79.4925770  72.5717820  62.1374020  78.6548200  72.4255640
  62.4109160  80.1255170  72.6581960  65.2797880  70.7468580  70.8858860
  64.9670540  70.8395410  71.7857930  66.0410350  71.3249610  70.8356290
  51.7980020  78.1128380  75.3436200  51.6777620  78.8390470  74.7317470
  51.4880910  77.3431290  74.8664110  54.2643680  71.4563450  78.7259870
  53.8211830  72.2372990  78.3944390  54.8228670  71.7793340  79.4330810
  57.3802500  71.0774150  73.6065700  56.7556680  71.0734020  74.3319010
  57.2932620  70.2105110  73.2101670  56.3019580  72.0010780  80.5849470
  56.5991910  72.9073610  80.5041490  56.8505140  71.5129560  79.9709040
  54.0557900  76.5797020  76.4541120  53.8298820  76.3634190  77.3587740
  53.2750430  77.0125480  76.1087090  61.2855660  76.5860390  75.0531770
  60.6864550  77.3096190  74.8695390  61.8335270  76.5237170  74.2708220
  59.8920530  75.2223930  77.0835050  60.2850100  75.5396130  76.2703740
  60.2537380  74.3435810  77.1979570  48.9284700  71.8124730  79.3065250
  48.6397750  72.3827590  80.0190230  49.6730460  71.3329180  79.6696480
  49.1154930  75.7544850  70.5167970  49.0329600  76.6975610  70.6582960
  48.7637990  75.6119760  69.6380320  60.4775670  77.8129680  81.1785830
  59.7456790  78.3216490  81.5275930  60.0800010  76.9959660  80.8774610
  56.9153060  74.4883880  79.5838320  56.9189120  74.0473830  78.7342860
  57.8104180  74.8101210  79.6910140  52.7655440  74.3710370  78.5432530
  52.4255490  74.8485600  79.2999580  52.0032760  73.9175490  78.1833630
  56.9773210  75.4895960  72.5745080  57.0986030  75.4482440  73.5230900
  56.5921720  76.3520110  72.4191810  60.9401580  73.2663360  80.5908770
  60.9574320  73.7172010  81.4350620  60.6917160  72.3669000  80.8042210
  55.9894710  77.7997100  71.9728380  55.4211610  77.3515350  71.3464290
  56.6983710  78.1589880  71.4393530  50.0801520  73.2929350  77.4597200
  49.7948440  72.9285020  78.2975820  50.0180380  72.5609810  76.8460340
  59.7540110  72.1858610  74.1810570  58.9404720  71.6871780  74.1055880
  59.5602060  73.0256860  73.7646920  62.4688500  76.5578260  72.4772730
  63.3568120  76.8695490  72.3024070  62.4393590  75.6850510  72.0853310
  64.7402770  77.8690100  71.9452590  64.6566490  78.3004320  71.0949030
  65.4596960  78.3288450  72.3779410  49.5732180  78.4288300  71.4193900
  50.4427030  78.7113100  71.7029820  49.0822500  79.2424170  71.3042710
  56.7366990  79.8161510  75.5402180  57.1929770  80.6266760  75.7662370
  56.3855200  79.4984650  76.3720670  52.6378770  70.1599160  76.0124700
  52.5093400  70.1517060  76.9609620  51.8140790  70.4982250  75.6615710
  51.5578690  80.2461770  73.5475960  50.9506640  80.9860670  73.5571260
  52.0328040  80.3361130  72.7214160  64.4973510  73.3669530  74.0320410
  63.8686670  73.4715200  73.3178640  64.0025430  73.5866310  74.8214290
  56.4657540  75.6455480  75.4478290  55.7573690  76.1141820  75.8891900
  56.7502020  74.9877490  76.0823480  60.4972970  72.3706140  76.8874080
  60.3740750  72.3892270  75.9383590  61.4457530  72.4185080  77.0072480
  54.6692560  73.9540560  72.8229000  55.5183090  74.3910710  72.7569190
  54.3023830  74.2660820  73.6501060  63.5902340  78.5253320  77.7360570
  62.6492480  78.5403550  77.9108260  63.9046410  77.7389280  78.1820870
  53.5683980  80.2072920  71.2964530  54.3347250  80.0954280  71.8589960
  53.6458670  79.5110890  70.6441300  52.2630740  77.6397990  71.9797420
  52.3434330  76.6925500  72.0914820  53.1550490  77.9704870  72.0858080
  55.6003010  80.2038050  73.2707170  56.0219430  80.0377920  74.1138560
  55.7253850  79.3938280  72.7762310  58.1130650  79.2275660  70.5184270
  58.6336310  78.5124680  70.1525420  58.7599050  79.8661530  70.8184780
  54.4961910  76.2771280  70.2165330  54.2950970  75.4138640  70.5778670
  54.3253960  76.1904640  69.2786930  61.9750220  71.0879510  72.7452210
  62.2552510  70.2447410  73.1011630  61.2015950  71.3202620  73.2590960
  53.2944710  73.3771900  70.2043210  53.5970610  73.3839330  69.2962360
  54.0339300  73.0269760  70.7010870  56.5129640  72.3206520  71.1899410
  56.1651640  71.6430510  70.6101860  56.7142410  71.8596030  72.0042800
  66.3530940  80.3256240  73.3556120  67.1149850  80.8952890  73.4615810
  66.3685310  79.7583440  74.1264430  49.8535280  78.8494170  77.5863780
  49.1984120  78.5805810  76.9423480  50.6913230  78.7398650  77.1365760
  62.8025720  73.6435460  71.8082270  63.2210600  73.4566440  70.9678930
  62.4961780  72.7914510  72.1185200  66.3015450  78.5559600  75.5058070
  65.9259050  77.7887530  75.0739360  65.5718570  78.9382300  75.9933000
  49.0673360  76.0593100  73.5289110  48.1637440  76.3223300  73.3540770
  49.5513980  76.3304270  72.7489070  65.5766410  76.7817090  78.8065310
  66.1003890  76.2879740  78.1755480  66.1625830  76.9167450  79.5512880
  51.6100570  75.1158640  71.4383490  52.3192270  74.6941860  70.9530770
  50.8940510  75.1833870  70.8066840  51.2574730  71.1697970  70.4786140
  51.9802860  71.7106910  70.7967360  51.5299250  70.8961390  69.6027680
  65.0666380  76.0390440  74.7457720  65.5625500  75.8061310  75.5306600
  64.8682450  75.2002280  74.3295360  50.9466920  70.4204160  80.3808760
  51.5943110  69.8701540  79.9403920  51.3668760  70.6747310  81.2024570
  66.4953540  74.6751390  77.2795400  66.3852820  74.5207430  78.2177670
  67.2561130  74.1472330  77.0370810  67.3843810  72.5059310  70.5201540
  68.3093120  72.3740490  70.3119830  67.3619600  72.5852130  71.4737990
  67.4582300  73.2769970  73.1458250  66.6633800  73.2115090  73.6751160
  67.6625580  74.2120610  73.1343600  59.3381160  70.9043750  81.5507990
  58.5552950  71.3789250  81.8304750  59.0444090  69.9998580  81.4421170
  63.8902230  71.6066850  79.5957080  64.3310320  71.5511950  78.7478680
  63.6209820  72.5224860  79.6667260  65.7540800  71.2382090  77.6065900
  65.6929200  70.2943310  77.4596920  66.5332830  71.3462180  78.1519360
  50.6821570  71.2091230  74.0721710  51.4400930  71.3220110  73.4985740
  50.2198740  72.0460430  74.0265140  57.2235380  73.3230500  77.0624020
  56.4109890  72.9487390  76.7219900  57.7277020  72.5675580  77.3645210
  61.7260360  69.9872950  78.3007090  62.3289730  70.5593160  78.7755610
  60.9853350  70.5512390  78.0780990  64.8694960  70.3894510  73.5747370
  65.0645590  71.2877960  73.8414800  64.0824830  70.1581590  74.0680320
  53.0546720  71.7355280  72.6123680  53.5839480  70.9485080  72.4831630
  53.6875040  72.4146470  72.8459210  55.2484560  71.4730420  75.6669070
  54.6187300  70.7717730  75.8339200  54.7089700  72.2334550  75.4502230
  60.8813730  78.1860450  59.0436770  60.8007780  77.2715060  58.7728480
  60.4678150  78.6827520  58.3376480  59.0131770  79.9639470  60.9246040
  58.2373870  79.4839910  61.2144610  59.6644700  79.2845120  60.7502200
  53.0297600  80.2759280  61.8021800  52.1982480  80.0207990  62.2018310
  53.6378580  80.3470050  62.5379720  51.4389550  75.2361170  55.5864190
  50.5506250  75.5777140  55.4844070  51.7230740  75.0361490  54.6945020
  49.4022560  77.8366820  61.4703890  49.9738670  77.0689020  61.4707530
  49.4024100  78.1355580  60.5610500  50.6447430  73.2451180  63.2572820
  50.4650270  72.3476930  63.5375580  50.2427510  73.7923050  63.9319770
  59.4845930  75.4467040  61.1585130  59.8610750  74.5738920  61.0458800
  59.3865440  75.7825740  60.2675570  53.6150940  73.8192670  56.6202570
  53.7217690  74.7196400  56.9271330  52.7043300  73.7710640  56.3297220
  63.2670050  72.9417480  58.0913470  64.0879670  72.4514050  58.1338950
  63.3004130  73.5315140  58.8445310  51.2634100  75.7411680  61.8655160
  51.9444210  76.0050050  62.4842560  50.9482150  74.9012550  62.1993170
  55.4558670  76.7879040  60.9527750  55.9636890  77.2860010  61.5932770
  55.9871910  76.0114240  60.7767110  67.5569600  74.9584230  64.6557100
  66.8521770  75.3465940  64.1372210  67.8227520  75.6534520  65.2578030
  53.7394770  71.4277600  65.2191170  53.7413210  71.9449990  64.4137070
  52.9099080  70.9507780  65.1961100  63.5031530  74.8817860  60.8641010
  62.7987100  75.1702750  61.4444120  63.8643690  75.6917970  60.5040570
  53.4210100  73.1387560  63.2261620  53.7626910  73.9829610  62.9315490
  52.4825910  73.2871300  63.3426960  66.5718450  74.3272650  61.2550220
  65.6243360  74.3611630  61.3865650  66.8968440  75.1411600  61.6399580
  57.1037990  70.6269830  59.5506210  57.4112970  70.0716720  58.8341710
  56.1738690  70.7614290  59.3679200  59.4918750  78.6918660  56.2866330
  58.5648030  78.6256040  56.5154800  59.6443570  79.6298790  56.1721570
  59.4787830  74.9635660  53.2833490  58.5391500  75.1249620  53.3685950
  59.7971090  75.6821340  52.7369480  66.0000590  79.6454180  63.2612520
  65.1719220  79.7147270  62.7862650  66.5951070  80.2308490  62.7928350
  63.5216040  80.2538960  56.7901580  62.9028460  79.9158510  56.1427880
  63.5040490  79.6098720  57.4980770  62.9642600  76.4323500  64.2067390
  62.5513780  77.2577210  64.4607380  62.2318550  75.8468540  64.0143750
  55.0975390  79.2183400  59.0686060  54.6932390  78.5060650  58.5731960
  55.1838510  78.8736640  59.9574100  53.8104010  75.9926610  62.8485100
  54.3618600  76.1021950  62.0738350  54.3247520  76.3664210  63.5640330
  61.6980740  79.4925770  53.7974330  62.1374020  78.6548200  53.6512150
  62.4109160  80.1255170  53.8838470  53.4846740  79.5145970  66.4590440
  53.3454510  80.3868770  66.8277840  52.6028100  79.1718780  66.3138380
  65.2797880  70.7468580  52.1115370  64.9670540  70.8395410  53.0114440
  66.0410350  71.3249610  52.0612800  51.7980020  78.1128380  56.5692710
  51.6777620  78.8390470  55.9573980  51.4880910  77.3431290  56.0920620
  66.4899170  75.4840080  68.0889510  65.8743440  75.9919750  67.5604970
  66.1695590  74.5838410  68.0315450  54.2643680  71.4563450  59.9516380
  53.8211830  72.2372990  59.6200900  54.8228670  71.7793340  60.6587320
  58.5513490  74.3231970  65.5551700  58.0892860  74.5314990  66.3671640
  58.1491600  73.5091320  65.2522370  63.5518000  75.5440920  66.6848360
  62.7011590  75.2446670  67.0057430  63.3919790  75.7882930  65.7732180
  60.6467710  77.0442670  68.7847150  60.9721120  76.2106420  68.4449380
  61.4348040  77.5671190  68.9325480  57.3802500  71.0774150  54.8322210
  56.7556680  71.0734020  55.5575520  57.2932620  70.2105110  54.4358180
  56.3019580  72.0010780  61.8105980  56.5991910  72.9073610  61.7298000
  56.8505140  71.5129560  61.1965550  54.0557900  76.5797020  57.6797630
  53.8298820  76.3634190  58.5844250  53.2750430  77.0125480  57.3343600
  61.2855660  76.5860390  56.2788280  60.6864550  77.3096190  56.0951900
  61.8335270  76.5237170  55.4964730  56.4957110  77.4782600  68.3457900
  56.4000710  76.5377330  68.1958300  57.3389090  77.6997670  67.9505970
  59.8920530  75.2223930  58.3091560  60.2850100  75.5396130  57.4960250
  60.2537380  74.3435810  58.4236080  51.6267650  73.8896270  66.4991680
  51.2331040  74.7371480  66.7064460  50.9386050  73.2522640  66.6900320
  58.2012700  73.9731240  69.5688420  57.5111020  73.7803440  70.2034510
  58.9445000  74.2565880  70.1012720  48.9284700  71.8124730  60.5321760
  48.6397750  72.3827590  61.2446740  49.6730460  71.3329180  60.8952990
  49.1154930  75.7544850  51.7424480  49.0329600  76.6975610  51.8839470
  48.7637990  75.6119760  50.8636830  60.4775670  77.8129680  62.4042340
  59.7456790  78.3216490  62.7532440  60.0800010  76.9959660  62.1031120
  56.9153060  74.4883880  60.8094830  56.9189120  74.0473830  59.9599370
  57.8104180  74.8101210  60.9166650  52.7655440  74.3710370  59.7689040
  52.4255490  74.8485600  60.5256090  52.0032760  73.9175490  59.4090140
  56.9773210  75.4895960  53.8001590  57.0986030  75.4482440  54.7487410
  56.5921720  76.3520110  53.6448320  60.9401580  73.2663360  61.8165280
  60.9574320  73.7172010  62.6607130  60.6917160  72.3669000  62.0298720
  55.9894710  77.7997100  53.1984890  55.4211610  77.3515350  52.5720800
  56.6983710  78.1589880  52.6650040  64.3672330  70.6795540  67.6551660
  64.6918100  69.9485200  68.1809640  64.4028840  70.3609180  66.7532650
  57.2161030  78.5485660  62.5560240  57.5831160  78.0744230  63.3021580
  57.0266090  79.4227230  62.8968580  50.0801520  73.2929350  58.6853710
  49.7948440  72.9285020  59.5232330  50.0180380  72.5609810  58.0716850
  55.0060400  77.5894300  64.8744450  54.7017470  78.4686280  65.0994810
  55.9606860  77.6494090  64.9101890  59.7540110  72.1858610  55.4067080
  58.9404720  71.6871780  55.3312390  59.5602060  73.0256860  54.9903430
  59.6748970  80.8629710  67.1506690  59.6086280  79.9425380  66.8964280
  59.0454110  80.9605150  67.8651330  62.4688500  76.5578260  53.7029240
  63.3568120  76.8695490  53.5280580  62.4393590  75.6850510  53.3109820
  51.0624130  78.4297040  66.0215810  50.7039070  79.0950890  66.6089150
  50.7678690  77.5980590  66.3928430  64.7402770  77.8690100  53.1709100
  64.6566490  78.3004320  52.3205540  65.4596960  78.3288450  53.6035920
  65.8176910  80.3257620  66.2479070  65.0925100  80.9186400  66.0508460
  66.3452370  80.3181160  65.4492440  49.5732180  78.4288300  52.6450410
  50.4427030  78.7113100  52.9286330  49.0822500  79.2424170  52.5299220
  56.7366990  79.8161510  56.7658690  57.1929770  80.6266760  56.9918880
  56.3855200  79.4984650  57.5977180  52.6378770  70.1599160  57.2381210
  52.5093400  70.1517060  58.1866130  51.8140790  70.4982250  56.8872220
  49.6372700  71.9190280  66.6987910  48.9231220  72.1187200  67.3040520
  50.0567740  71.1429850  67.0702710  51.5578690  80.2461770  54.7732470
  50.9506640  80.9860670  54.7827770  52.0328040  80.3361130  53.9470670
  61.1311480  74.4112590  64.4489360  61.4992300  73.5907800  64.7768930
  60.2709680  74.4714480  64.8645010  64.4973510  73.3669530  55.2576920
  63.8686670  73.4715200  54.5435150  64.0025430  73.5866310  56.0470800
  56.4657540  75.6455480  56.6734800  55.7573690  76.1141820  57.1148410
  56.7502020  74.9877490  57.3079990  58.0913470  77.0652180  64.6727330
  58.5898720  77.5398000  65.3379180  58.2336420  76.1415700  64.8797360
  60.4972970  72.3706140  58.1130590  60.3740750  72.3892270  57.1640100
  61.4457530  72.4185080  58.2328990  54.6692560  73.9540560  54.0485510
  55.5183090  74.3910710  53.9825700  54.3023830  74.2660820  54.8757570
  65.2980330  73.2820140  65.5155720  64.7953930  74.0225540  65.8549530
  66.1136990  73.6704140  65.1992510  63.5902340  78.5253320  58.9617080
  62.6492480  78.5403550  59.1364770  63.9046410  77.7389280  59.4077380
  53.5683980  80.2072920  52.5221040  54.3347250  80.0954280  53.0846470
  53.6458670  79.5110890  51.8697810  52.2630740  77.6397990  53.2053930
  52.3434330  76.6925500  53.3171330  53.1550490  77.9704870  53.3114590
  49.7901540  79.4612910  68.4410100  50.2940560  78.8820190  69.0126330
  49.0508960  79.7453140  68.9786470  51.8224620  77.6042500  69.3360170
  51.8629960  77.3056370  70.2445400  52.6770120  78.0050110  69.1767690
  55.6003010  80.2038050  54.4963680  56.0219430  80.0377920  55.3395070
  55.7253850  79.3938280  54.0018820  53.7630430  76.1834600  67.3034660
  53.2326890  75.6925550  66.6758000  54.4318500  76.6118800  66.7692590
  58.1130650  79.2275660  51.7440780  58.6336310  78.5124680  51.3781930
  58.7599050  79.8661530  52.0441290  62.6608490  80.6504060  67.0675850
  63.0749510  80.8049140  67.9166270  61.7259490  80.7759280  67.2301630
  63.1330660  77.9900220  69.0715000  63.7151430  77.2352540  68.9835480
  63.3092430  78.5207660  68.2946480  54.2502730  73.1496970  67.3831950
  54.1559600  72.5317720  66.6582820  53.6700120  73.8763260  67.1561860
  57.0164170  71.7070210  64.4159340  56.5681470  71.7294470  63.5704890
  56.3829370  71.3089230  65.0129640  59.7587620  78.3340720  66.4209620
  59.8783830  77.7381860  67.1604460  60.6181620  78.3710410  66.0010920
  62.0975520  78.8877910  64.9972130  61.5710740  79.4120530  64.3937270
  62.4406860  79.5205300  65.6281860  54.4961910  76.2771280  51.4421840
  54.2950970  75.4138640  51.8035180  54.3253960  76.1904640  50.5043440
  56.5256390  74.8762070  67.6785440  57.1156080  74.5677920  68.3663260
  55.7076630  74.4041820  67.8345340  61.3449820  74.4927880  67.9118460
  60.6565340  73.8309420  67.8468450  62.0655840  74.0466150  68.3566920
  61.9750220  71.0879510  53.9708720  62.2552510  70.2447410  54.3268140
  61.2015950  71.3202620  54.4847470  53.2944710  73.3771900  51.4299720
  53.5970610  73.3839330  50.5218870  54.0339300  73.0269760  51.9267380
  56.5129640  72.3206520  52.4155920  56.1651640  71.6430510  51.8358370
  56.7142410  71.8596030  53.2299310  66.3530940  80.3256240  54.5812630
  67.1149850  80.8952890  54.6872320  66.3685310  79.7583440  55.3520940
  49.8535280  78.8494170  58.8120290  49.1984120  78.5805810  58.1679990
  50.6913230  78.7398650  58.3622270  62.8025720  73.6435460  53.0338780
  63.2210600  73.4566440  52.1935440  62.4961780  72.7914510  53.3441710
  66.3015450  78.5559600  56.7314580  65.9259050  77.7887530  56.2995870
  65.5718570  78.9382300  57.2189510  50.8911210  79.2346740  63.3523630
  51.2584250  79.1474140  64.2319650  50.3222030  78.4713290  63.2530490
  65.6915070  77.7031120  66.3654100  65.4601160  77.4743870  65.4652050
  65.9519620  78.6230670  66.3198990  50.4427210  76.1455830  67.2582050
  49.5483260  76.1122590  67.5975760  50.9824760  76.3442620  68.0233300
  64.1303140  72.9287550  69.1433800  65.0073320  72.9370950  69.5267800
  64.1423980  72.1918390  68.5326150  49.0673360  76.0593100  54.7545620
  48.1637440  76.3223300  54.5797280  49.5513980  76.3304270  53.9745580
  65.5766410  76.7817090  60.0321820  66.1003890  76.2879740  59.4011990
  66.1625830  76.9167450  60.7769390  65.7556130  76.8656960  63.5541370
  64.8058840  76.8320500  63.6686360  65.9369140  77.7757070  63.3191140
  51.6100570  75.1158640  52.6640000  52.3192270  74.6941860  52.1787280
  50.8940510  75.1833870  52.0323350  51.2574730  71.1697970  51.7042650
  51.9802860  71.7106910  52.0223870  51.5299250  70.8961390  50.8284190
  65.0666380  76.0390440  55.9714230  65.5625500  75.8061310  56.7563110
  64.8682450  75.2002280  55.5551870  50.9466920  70.4204160  61.6065270
  51.5943110  69.8701540  61.1660430  51.3668760  70.6747310  62.4281080
  66.4953540  74.6751390  58.5051910  66.3852820  74.5207430  59.4434180
  67.2561130  74.1472330  58.2627320  64.8419260  70.6145520  64.9634910
  65.4791480  71.2279660  65.3294100  64.9894150  70.6506180  64.0184140
  67.3843810  72.5059310  51.7458050  68.3093120  72.3740490  51.5376340
  67.3619600  72.5852130  52.6994500  67.4582300  73.2769970  54.3714760
  66.6633800  73.2115090  54.9007670  67.6625580  74.2120610  54.3600110
  50.6998920  70.5759830  64.3490590  50.3513740  71.0323650  65.1148770
  50.3686620  69.6816960  64.4313020  58.2123740  71.7671710  67.8710010
  58.1512630  72.3593540  68.6205420  59.1524120  71.6597670  67.7260270
  60.8498300  71.4241770  67.5102300  61.4638710  71.7421060  66.8483380
  61.3947860  70.9390360  68.1298160  51.3719560  70.1036030  67.6241360
  51.9202550  69.9224080  66.8607470  51.4374870  69.3130140  68.1597670
  61.5906340  69.9873910  63.8371590  60.7166180  70.3209020  63.6344520
  61.4817090  69.5147090  64.6623460  62.4978320  72.1944780  65.2213310
  62.1691680  71.3796540  64.8415040  63.4460620  72.1514590  65.0979000
  59.3381160  70.9043750  62.7764500  58.5552950  71.3789250  63.0561260
  59.0444090  69.9998580  62.6677680  63.8902230  71.6066850  60.8213590
  64.3310320  71.5511950  59.9735190  63.6209820  72.5224860  60.8923770
  65.7540800  71.2382090  58.8322410  65.6929200  70.2943310  58.6853430
  66.5332830  71.3462180  59.3775870  50.6821570  71.2091230  55.2978220
  51.4400930  71.3220110  54.7242250  50.2198740  72.0460430  55.2521650
  57.2235380  73.3230500  58.2880530  56.4109890  72.9487390  57.9476410
  57.7277020  72.5675580  58.5901720  61.7260360  69.9872950  59.5263600
  62.3289730  70.5593160  60.0012120  60.9853350  70.5512390  59.3037500
  64.8694960  70.3894510  54.8003880  65.0645590  71.2877960  55.0671310
  64.0824830  70.1581590  55.2936830  53.0546720  71.7355280  53.8380190
  53.5839480  70.9485080  53.7088140  53.6875040  72.4146470  54.0715720
  55.2484560  71.4730420  56.8925580  54.6187300  70.7717730  57.0595710
  54.7089700  72.2334550  56.6758740  55.3740120  70.7514400  69.3278070
  55.0924390  71.2548000  68.5638890  55.7559820  69.9536150  68.9620200
  61.9755580  70.1667980  69.9058540  61.8621030  70.4862590  70.8010060
  62.7925320  70.5680490  69.6095820  60.8813730  78.1860450  40.2693280
  60.8007780  77.2715060  39.9984990  60.4678150  78.6827520  39.5632990
  59.0131770  79.9639470  42.1502550  58.2373870  79.4839910  42.4401120
  59.6644700  79.2845120  41.9758710  53.0297600  80.2759280  43.0278310
  52.1982480  80.0207990  43.4274820  53.6378580  80.3470050  43.7636230
  51.4389550  75.2361170  36.8120700  50.5506250  75.5777140  36.7100580
  51.7230740  75.0361490  35.9201530  49.4022560  77.8366820  42.6960400
  49.9738670  77.0689020  42.6964040  49.4024100  78.1355580  41.7867010
  50.6447430  73.2451180  44.4829330  50.4650270  72.3476930  44.7632090
  50.2427510  73.7923050  45.1576280  59.4845930  75.4467040  42.3841640
  59.8610750  74.5738920  42.2715310  59.3865440  75.7825740  41.4932080
  53.6150940  73.8192670  37.8459080  53.7217690  74.7196400  38.1527840
  52.7043300  73.7710640  37.5553730  63.2670050  72.9417480  39.3169980
  64.0879670  72.4514050  39.3595460  63.3004130  73.5315140  40.0701820
  51.2634100  75.7411680  43.0911670  51.9444210  76.0050050  43.7099070
  50.9482150  74.9012550  43.4249680  55.4558670  76.7879040  42.1784260
  55.9636890  77.2860010  42.8189280  55.9871910  76.0114240  42.0023620
  67.5569600  74.9584230  45.8813610  66.8521770  75.3465940  45.3628720
  67.8227520  75.6534520  46.4834540  53.7394770  71.4277600  46.4447680
  53.7413210  71.9449990  45.6393580  52.9099080  70.9507780  46.4217610
  63.5031530  74.8817860  42.0897520  62.7987100  75.1702750  42.6700630
  63.8643690  75.6917970  41.7297080  53.4210100  73.1387560  44.4518130
  53.7626910  73.9829610  44.1572000  52.4825910  73.2871300  44.5683470
  66.5718450  74.3272650  42.4806730  65.6243360  74.3611630  42.6122160
  66.8968440  75.1411600  42.8656090  59.4918750  78.6918660  37.5122840
  58.5648030  78.6256040  37.7411310  59.6443570  79.6298790  37.3978080
  59.4787830  74.9635660  34.5090000  58.5391500  75.1249620  34.5942460
  59.7971090  75.6821340  33.9625990  66.0000590  79.6454180  44.4869030
  65.1719220  79.7147270  44.0119160  66.5951070  80.2308490  44.0184860
  63.5216040  80.2538960  38.0158090  62.9028460  79.9158510  37.3684390
  63.5040490  79.6098720  38.7237280  62.9642600  76.4323500  45.4323900
  62.5513780  77.2577210  45.6863890  62.2318550  75.8468540  45.2400260
  55.0975390  79.2183400  40.2942570  54.6932390  78.5060650  39.7988470
  55.1838510  78.8736640  41.1830610  53.8104010  75.9926610  44.0741610
  54.3618600  76.1021950  43.2994860  54.3247520  76.3664210  44.7896840
  61.6980740  79.4925770  35.0230840  62.1374020  78.6548200  34.8768660
  62.4109160  80.1255170  35.1094980  53.4846740  79.5145970  47.6846950
  53.3454510  80.3868770  48.0534350  52.6028100  79.1718780  47.5394890
  65.2797880  70.7468580  33.3371880  64.9670540  70.8395410  34.2370950
  66.0410350  71.3249610  33.2869310  51.7980020  78.1128380  37.7949220
  51.6777620  78.8390470  37.1830490  51.4880910  77.3431290  37.3177130
  66.4899170  75.4840080  49.3146020  65.8743440  75.9919750  48.7861480
  66.1695590  74.5838410  49.2571960  54.2643680  71.4563450  41.1772890
  53.8211830  72.2372990  40.8457410  54.8228670  71.7793340  41.8843830
  58.5513490  74.3231970  46.7808210  58.0892860  74.5314990  47.5928150
  58.1491600  73.5091320  46.4778880  63.5518000  75.5440920  47.9104870
  62.7011590  75.2446670  48.2313940  63.3919790  75.7882930  46.9988690
  60.6467710  77.0442670  50.0103660  60.9721120  76.2106420  49.6705890
  61.4348040  77.5671190  50.1581990  57.3802500  71.0774150  36.0578720
  56.7556680  71.0734020  36.7832030  57.2932620  70.2105110  35.6614690
  56.3019580  72.0010780  43.0362490  56.5991910  72.9073610  42.9554510
  56.8505140  71.5129560  42.4222060  54.0557900  76.5797020  38.9054140
  53.8298820  76.3634190  39.8100760  53.2750430  77.0125480  38.5600110
  61.2855660  76.5860390  37.5044790  60.6864550  77.3096190  37.3208410
  61.8335270  76.5237170  36.7221240  56.4957110  77.4782600  49.5714410
  56.4000710  76.5377330  49.4214810  57.3389090  77.6997670  49.1762480
  59.8920530  75.2223930  39.5348070  60.2850100  75.5396130  38.7216760
  60.2537380  74.3435810  39.6492590  51.6267650  73.8896270  47.7248190
  51.2331040  74.7371480  47.9320970  50.9386050  73.2522640  47.9156830
  58.2012700  73.9731240  50.7944930  57.5111020  73.7803440  51.4291020
  58.9445000  74.2565880  51.3269230  48.9284700  71.8124730  41.7578270
  48.6397750  72.3827590  42.4703250  49.6730460  71.3329180  42.1209500
  49.1154930  75.7544850  32.9680990  49.0329600  76.6975610  33.1095980
  48.7637990  75.6119760  32.0893340  60.4775670  77.8129680  43.6298850
  59.7456790  78.3216490  43.9788950  60.0800010  76.9959660  43.3287630
  56.9153060  74.4883880  42.0351340  56.9189120  74.0473830  41.1855880
  57.8104180  74.8101210  42.1423160  52.7655440  74.3710370  40.9945550
  52.4255490  74.8485600  41.7512600  52.0032760  73.9175490  40.6346650
  56.9773210  75.4895960  35.0258100  57.0986030  75.4482440  35.9743920
  56.5921720  76.3520110  34.8704830  60.9401580  73.2663360  43.0421790
  60.9574320  73.7172010  43.8863640  60.6917160  72.3669000  43.2555230
  55.9894710  77.7997100  34.4241400  55.4211610  77.3515350  33.7977310
  56.6983710  78.1589880  33.8906550  64.3672330  70.6795540  48.8808170
  64.6918100  69.9485200  49.4066150  64.4028840  70.3609180  47.9789160
  57.2161030  78.5485660  43.7816750  57.5831160  78.0744230  44.5278090
  57.0266090  79.4227230  44.1225090  50.0801520  73.2929350  39.9110220
  49.7948440  72.9285020  40.7488840  50.0180380  72.5609810  39.2973360
  55.0060400  77.5894300  46.1000960  54.7017470  78.4686280  46.3251320
  55.9606860  77.6494090  46.1358400  59.7540110  72.1858610  36.6323590
  58.9404720  71.6871780  36.5568900  59.5602060  73.0256860  36.2159940
  59.6748970  80.8629710  48.3763200  59.6086280  79.9425380  48.1220790
  59.0454110  80.9605150  49.0907840  62.4688500  76.5578260  34.9285750
  63.3568120  76.8695490  34.7537090  62.4393590  75.6850510  34.5366330
  51.0624130  78.4297040  47.2472320  50.7039070  79.0950890  47.8345660
  50.7678690  77.5980590  47.6184940  54.2637250  78.8881280  50.1311870
  53.9637390  79.0338460  49.2339690  55.0348490  78.3286570  50.0385260
  64.7402770  77.8690100  34.3965610  64.6566490  78.3004320  33.5462050
  65.4596960  78.3288450  34.8292430  65.8176910  80.3257620  47.4735580
  65.0925100  80.9186400  47.2764970  66.3452370  80.3181160  46.6748950
  49.5732180  78.4288300  33.8706920  50.4427030  78.7113100  34.1542840
  49.0822500  79.2424170  33.7555730  56.7366990  79.8161510  37.9915200
  57.1929770  80.6266760  38.2175390  56.3855200  79.4984650  38.8233690
  52.6378770  70.1599160  38.4637720  52.5093400  70.1517060  39.4122640
  51.8140790  70.4982250  38.1128730  49.6372700  71.9190280  47.9244420
  48.9231220  72.1187200  48.5297030  50.0567740  71.1429850  48.2959220
  51.5578690  80.2461770  35.9988980  50.9506640  80.9860670  36.0084280
  52.0328040  80.3361130  35.1727180  61.1311480  74.4112590  45.6745870
  61.4992300  73.5907800  46.0025440  60.2709680  74.4714480  46.0901520
  64.4973510  73.3669530  36.4833430  63.8686670  73.4715200  35.7691660
  64.0025430  73.5866310  37.2727310  56.4657540  75.6455480  37.8991310
  55.7573690  76.1141820  38.3404920  56.7502020  74.9877490  38.5336500
  58.0913470  77.0652180  45.8983840  58.5898720  77.5398000  46.5635690
  58.2336420  76.1415700  46.1053870  60.4972970  72.3706140  39.3387100
  60.3740750  72.3892270  38.3896610  61.4457530  72.4185080  39.4585500
  54.6692560  73.9540560  35.2742020  55.5183090  74.3910710  35.2082210
  54.3023830  74.2660820  36.1014080  65.2980330  73.2820140  46.7412230
  64.7953930  74.0225540  47.0806040  66.1136990  73.6704140  46.4249020
  63.5902340  78.5253320  40.1873590  62.6492480  78.5403550  40.3621280
  63.9046410  77.7389280  40.6333890  53.5683980  80.2072920  33.7477550
  54.3347250  80.0954280  34.3102980  53.6458670  79.5110890  33.0954320
  52.2630740  77.6397990  34.4310440  52.3434330  76.6925500  34.5427840
  53.1550490  77.9704870  34.5371100  49.7901540  79.4612910  49.6666610
  50.2940560  78.8820190  50.2382840  49.0508960  79.7453140  50.2042980
  51.8224620  77.6042500  50.5616680  51.8629960  77.3056370  51.4701910
  52.6770120  78.0050110  50.4024200  55.6003010  80.2038050  35.7220190
  56.0219430  80.0377920  36.5651580  55.7253850  79.3938280  35.2275330
  53.7630430  76.1834600  48.5291170  53.2326890  75.6925550  47.9014510
  54.4318500  76.6118800  47.9949100  58.1130650  79.2275660  32.9697290
  58.6336310  78.5124680  32.6038440  58.7599050  79.8661530  33.2697800
  62.6608490  80.6504060  48.2932360  63.0749510  80.8049140  49.1422780
  61.7259490  80.7759280  48.4558140  63.1330660  77.9900220  50.2971510
  63.7151430  77.2352540  50.2091990  63.3092430  78.5207660  49.5202990
  54.2502730  73.1496970  48.6088460  54.1559600  72.5317720  47.8839330
  53.6700120  73.8763260  48.3818370  59.7587620  78.3340720  47.6466130
  59.8783830  77.7381860  48.3860970  60.6181620  78.3710410  47.2267430
  62.0975520  78.8877910  46.2228640  61.5710740  79.4120530  45.6193780
  62.4406860  79.5205300  46.8538370  54.4961910  76.2771280  32.6678350
  54.2950970  75.4138640  33.0291690  54.3253960  76.1904640  31.7299950
  56.5256390  74.8762070  48.9041950  57.1156080  74.5677920  49.5919770
  55.7076630  74.4041820  49.0601850  61.3449820  74.4927880  49.1374970
  60.6565340  73.8309420  49.0724960  62.0655840  74.0466150  49.5823430
  61.9750220  71.0879510  35.1965230  62.2552510  70.2447410  35.5524650
  61.2015950  71.3202620  35.7103980  53.2944710  73.3771900  32.6556230
  53.5970610  73.3839330  31.7475380  54.0339300  73.0269760  33.1523890
  56.5129640  72.3206520  33.6412430  56.1651640  71.6430510  33.0614880
  56.7142410  71.8596030  34.4555820  66.3530940  80.3256240  35.8069140
  67.1149850  80.8952890  35.9128830  66.3685310  79.7583440  36.5777450
  49.8535280  78.8494170  40.0376800  49.1984120  78.5805810  39.3936500
  50.6913230  78.7398650  39.5878780  62.8025720  73.6435460  34.2595290
  63.2210600  73.4566440  33.4191950  62.4961780  72.7914510  34.5698220
  66.3015450  78.5559600  37.9571090  65.9259050  77.7887530  37.5252380
  65.5718570  78.9382300  38.4446020  50.8911210  79.2346740  44.5780140
  51.2584250  79.1474140  45.4576160  50.3222030  78.4713290  44.4787000
  65.6915070  77.7031120  47.5910610  65.4601160  77.4743870  46.6908560
  65.9519620  78.6230670  47.5455500  50.4427210  76.1455830  48.4838560
  49.5483260  76.1122590  48.8232270  50.9824760  76.3442620  49.2489810
  64.1303140  72.9287550  50.3690310  65.0073320  72.9370950  50.7524310
  64.1423980  72.1918390  49.7582660  49.0673360  76.0593100  35.9802130
  48.1637440  76.3223300  35.8053790  49.5513980  76.3304270  35.2002090
  65.5766410  76.7817090  41.2578330  66.1003890  76.2879740  40.6268500
  66.1625830  76.9167450  42.0025900  65.7556130  76.8656960  44.7797880
  64.8058840  76.8320500  44.8942870  65.9369140  77.7757070  44.5447650
  51.6100570  75.1158640  33.8896510  52.3192270  74.6941860  33.4043790
  50.8940510  75.1833870  33.2579860  51.2574730  71.1697970  32.9299160
  51.9802860  71.7106910  33.2480380  51.5299250  70.8961390  32.0540700
  65.0666380  76.0390440  37.1970740  65.5625500  75.8061310  37.9819620
  64.8682450  75.2002280  36.7808380  50.9466920  70.4204160  42.8321780
  51.5943110  69.8701540  42.3916940  51.3668760  70.6747310  43.6537590
  66.4953540  74.6751390  39.7308420  66.3852820  74.5207430  40.6690690
  67.2561130  74.1472330  39.4883830  67.3843810  72.5059310  32.9714560
  68.3093120  72.3740490  32.7632850  67.3619600  72.5852130  33.9251010
  67.4582300  73.2769970  35.5971270  66.6633800  73.2115090  36.1264180
  67.6625580  74.2120610  35.5856620  50.6998920  70.5759830  45.5747100
  50.3513740  71.0323650  46.3405280  50.3686620  69.6816960  45.6569530
  51.3719560  70.1036030  48.8497870  51.9202550  69.9224080  48.0863980
  51.4374870  69.3130140  49.3854180  62.4978320  72.1944780  46.4469820
  62.1691680  71.3796540  46.0671550  63.4460620  72.1514590  46.3235510
  63.8902230  71.6066850  42.0470100  64.3310320  71.5511950  41.1991700
  63.6209820  72.5224860  42.1180280  65.7540800  71.2382090  40.0578920
  65.6929200  70.2943310  39.9109940  66.5332830  71.3462180  40.6032380
  50.6821570  71.2091230  36.5234730  51.4400930  71.3220110  35.9498760
  50.2198740  72.0460430  36.4778160  57.2235380  73.3230500  39.5137040
  56.4109890  72.9487390  39.1732920  57.7277020  72.5675580  39.8158230
  64.8694960  70.3894510  36.0260390  65.0645590  71.2877960  36.2927820
  64.0824830  70.1581590  36.5193340  53.0546720  71.7355280  35.0636700
  53.5839480  70.9485080  34.9344650  53.6875040  72.4146470  35.2972230
  55.2484560  71.4730420  38.1182090  54.6187300  70.7717730  38.2852220
  54.7089700  72.2334550  37.9015250  55.3740120  70.7514400  50.5534580
  55.0924390  71.2548000  49.7895400  55.7559820  69.9536150  50.1876710
  61.9755580  70.1667980  51.1315050  61.8621030  70.4862590  52.0266570
  62.7925320  70.5680490  50.8352330  60.8813730  78.1860450  21.4949790
  60.8007780  77.2715060  21.2241500  60.4678150  78.6827520  20.7889500
  59.0131770  79.9639470  23.3759060  58.2373870  79.4839910  23.6657630
  59.6644700  79.2845120  23.2015220  53.0297600  80.2759280  24.2534820
  52.1982480  80.0207990  24.6531330  53.6378580  80.3470050  24.9892740
  51.4389550  75.2361170  18.0377210  50.5506250  75.5777140  17.9357090
  51.7230740  75.0361490  17.1458040  49.4022560  77.8366820  23.9216910
  49.9738670  77.0689020  23.9220550  49.4024100  78.1355580  23.0123520
  50.6447430  73.2451180  25.7085840  50.4650270  72.3476930  25.9888600
  50.2427510  73.7923050  26.3832790  59.4845930  75.4467040  23.6098150
  59.8610750  74.5738920  23.4971820  59.3865440  75.7825740  22.7188590
  53.6150940  73.8192670  19.0715590  53.7217690  74.7196400  19.3784350
  52.7043300  73.7710640  18.7810240  63.2670050  72.9417480  20.5426490
  64.0879670  72.4514050  20.5851970  63.3004130  73.5315140  21.2958330
  51.2634100  75.7411680  24.3168180  51.9444210  76.0050050  24.9355580
  50.9482150  74.9012550  24.6506190  55.4558670  76.7879040  23.4040770
  55.9636890  77.2860010  24.0445790  55.9871910  76.0114240  23.2280130
  67.5569600  74.9584230  27.1070120  66.8521770  75.3465940  26.5885230
  67.8227520  75.6534520  27.7091050  53.7394770  71.4277600  27.6704190
  53.7413210  71.9449990  26.8650090  52.9099080  70.9507780  27.6474120
  63.5031530  74.8817860  23.3154030  62.7987100  75.1702750  23.8957140
  63.8643690  75.6917970  22.9553590  53.4210100  73.1387560  25.6774640
  53.7626910  73.9829610  25.3828510  52.4825910  73.2871300  25.7939980
  66.5718450  74.3272650  23.7063240  65.6243360  74.3611630  23.8378670
  66.8968440  75.1411600  24.0912600  57.1037990  70.6269830  22.0019230
  57.4112970  70.0716720  21.2854730  56.1738690  70.7614290  21.8192220
  59.4918750  78.6918660  18.7379350  58.5648030  78.6256040  18.9667820
  59.6443570  79.6298790  18.6234590  59.4787830  74.9635660  15.7346510
  58.5391500  75.1249620  15.8198970  59.7971090  75.6821340  15.1882500
  66.0000590  79.6454180  25.7125540  65.1719220  79.7147270  25.2375670
  66.5951070  80.2308490  25.2441370  63.5216040  80.2538960  19.2414600
  62.9028460  79.9158510  18.5940900  63.5040490  79.6098720  19.9493790
  62.9642600  76.4323500  26.6580410  62.5513780  77.2577210  26.9120400
  62.2318550  75.8468540  26.4656770  55.0975390  79.2183400  21.5199080
  54.6932390  78.5060650  21.0244980  55.1838510  78.8736640  22.4087120
  53.8104010  75.9926610  25.2998120  54.3618600  76.1021950  24.5251370
  54.3247520  76.3664210  26.0153350  61.6980740  79.4925770  16.2487350
  62.1374020  78.6548200  16.1025170  62.4109160  80.1255170  16.3351490
  53.4846740  79.5145970  28.9103460  53.3454510  80.3868770  29.2790860
  52.6028100  79.1718780  28.7651400  65.2797880  70.7468580  14.5628390
  64.9670540  70.8395410  15.4627460  66.0410350  71.3249610  14.5125820
  51.7980020  78.1128380  19.0205730  51.6777620  78.8390470  18.4087000
  51.4880910  77.3431290  18.5433640  66.4899170  75.4840080  30.5402530
  65.8743440  75.9919750  30.0117990  66.1695590  74.5838410  30.4828470
  54.2643680  71.4563450  22.4029400  53.8211830  72.2372990  22.0713920
  54.8228670  71.7793340  23.1100340  58.5513490  74.3231970  28.0064720
  58.0892860  74.5314990  28.8184660  58.1491600  73.5091320  27.7035390
  63.5518000  75.5440920  29.1361380  62.7011590  75.2446670  29.4570450
  63.3919790  75.7882930  28.2245200  60.6467710  77.0442670  31.2360170
  60.9721120  76.2106420  30.8962400  61.4348040  77.5671190  31.3838500
  57.3802500  71.0774150  17.2835230  56.7556680  71.0734020  18.0088540
  57.2932620  70.2105110  16.8871200  56.3019580  72.0010780  24.2619000
  56.5991910  72.9073610  24.1811020  56.8505140  71.5129560  23.6478570
  54.0557900  76.5797020  20.1310650  53.8298820  76.3634190  21.0357270
  53.2750430  77.0125480  19.7856620  61.2855660  76.5860390  18.7301300
  60.6864550  77.3096190  18.5464920  61.8335270  76.5237170  17.9477750
  56.4957110  77.4782600  30.7970920  56.4000710  76.5377330  30.6471320
  57.3389090  77.6997670  30.4018990  59.8920530  75.2223930  20.7604580
  60.2850100  75.5396130  19.9473270  60.2537380  74.3435810  20.8749100
  51.6267650  73.8896270  28.9504700  51.2331040  74.7371480  29.1577480
  50.9386050  73.2522640  29.1413340  58.2012700  73.9731240  32.0201440
  57.5111020  73.7803440  32.6547530  58.9445000  74.2565880  32.5525740
  48.9284700  71.8124730  22.9834780  48.6397750  72.3827590  23.6959760
  49.6730460  71.3329180  23.3466010  49.1154930  75.7544850  14.1937500
  49.0329600  76.6975610  14.3352490  48.7637990  75.6119760  13.3149850
  60.4775670  77.8129680  24.8555360  59.7456790  78.3216490  25.2045460
  60.0800010  76.9959660  24.5544140  56.9153060  74.4883880  23.2607850
  56.9189120  74.0473830  22.4112390  57.8104180  74.8101210  23.3679670
  52.7655440  74.3710370  22.2202060  52.4255490  74.8485600  22.9769110
  52.0032760  73.9175490  21.8603160  56.9773210  75.4895960  16.2514610
  57.0986030  75.4482440  17.2000430  56.5921720  76.3520110  16.0961340
  60.9401580  73.2663360  24.2678300  60.9574320  73.7172010  25.1120150
  60.6917160  72.3669000  24.4811740  55.9894710  77.7997100  15.6497910
  55.4211610  77.3515350  15.0233820  56.6983710  78.1589880  15.1163060
  64.3672330  70.6795540  30.1064680  64.6918100  69.9485200  30.6322660
  64.4028840  70.3609180  29.2045670  57.2161030  78.5485660  25.0073260
  57.5831160  78.0744230  25.7534600  57.0266090  79.4227230  25.3481600
  50.0801520  73.2929350  21.1366730  49.7948440  72.9285020  21.9745350
  50.0180380  72.5609810  20.5229870  55.0060400  77.5894300  27.3257470
  54.7017470  78.4686280  27.5507830  55.9606860  77.6494090  27.3614910
  59.7540110  72.1858610  17.8580100  58.9404720  71.6871780  17.7825410
  59.5602060  73.0256860  17.4416450  59.6748970  80.8629710  29.6019710
  59.6086280  79.9425380  29.3477300  59.0454110  80.9605150  30.3164350
  62.4688500  76.5578260  16.1542260  63.3568120  76.8695490  15.9793600
  62.4393590  75.6850510  15.7622840  51.0624130  78.4297040  28.4728830
  50.7039070  79.0950890  29.0602170  50.7678690  77.5980590  28.8441450
  54.2637250  78.8881280  31.3568380  53.9637390  79.0338460  30.4596200
  55.0348490  78.3286570  31.2641770  64.7402770  77.8690100  15.6222120
  64.6566490  78.3004320  14.7718560  65.4596960  78.3288450  16.0548940
  65.8176910  80.3257620  28.6992090  65.0925100  80.9186400  28.5021480
  66.3452370  80.3181160  27.9005460  49.5732180  78.4288300  15.0963430
  50.4427030  78.7113100  15.3799350  49.0822500  79.2424170  14.9812240
  56.7366990  79.8161510  19.2171710  57.1929770  80.6266760  19.4431900
  56.3855200  79.4984650  20.0490200  52.6378770  70.1599160  19.6894230
  52.5093400  70.1517060  20.6379150  51.8140790  70.4982250  19.3385240
  49.6372700  71.9190280  29.1500930  48.9231220  72.1187200  29.7553540
  50.0567740  71.1429850  29.5215730  51.5578690  80.2461770  17.2245490
  50.9506640  80.9860670  17.2340790  52.0328040  80.3361130  16.3983690
  61.1311480  74.4112590  26.9002380  61.4992300  73.5907800  27.2281950
  60.2709680  74.4714480  27.3158030  64.4973510  73.3669530  17.7089940
  63.8686670  73.4715200  16.9948170  64.0025430  73.5866310  18.4983820
  56.4657540  75.6455480  19.1247820  55.7573690  76.1141820  19.5661430
  56.7502020  74.9877490  19.7593010  58.0913470  77.0652180  27.1240350
  58.5898720  77.5398000  27.7892200  58.2336420  76.1415700  27.3310380
  60.4972970  72.3706140  20.5643610  60.3740750  72.3892270  19.6153120
  61.4457530  72.4185080  20.6842010  54.6692560  73.9540560  16.4998530
  55.5183090  74.3910710  16.4338720  54.3023830  74.2660820  17.3270590
  65.2980330  73.2820140  27.9668740  64.7953930  74.0225540  28.3062550
  66.1136990  73.6704140  27.6505530  63.5902340  78.5253320  21.4130100
  62.6492480  78.5403550  21.5877790  63.9046410  77.7389280  21.8590400
  53.5683980  80.2072920  14.9734060  54.3347250  80.0954280  15.5359490
  53.6458670  79.5110890  14.3210830  52.2630740  77.6397990  15.6566950
  52.3434330  76.6925500  15.7684350  53.1550490  77.9704870  15.7627610
  49.7901540  79.4612910  30.8923120  50.2940560  78.8820190  31.4639350
  49.0508960  79.7453140  31.4299490  51.8224620  77.6042500  31.7873190
  51.8629960  77.3056370  32.6958420  52.6770120  78.0050110  31.6280710
  55.6003010  80.2038050  16.9476700  56.0219430  80.0377920  17.7908090
  55.7253850  79.3938280  16.4531840  53.7630430  76.1834600  29.7547680
  53.2326890  75.6925550  29.1271020  54.4318500  76.6118800  29.2205610
  58.1130650  79.2275660  14.1953800  58.6336310  78.5124680  13.8294950
  58.7599050  79.8661530  14.4954310  62.6608490  80.6504060  29.5188870
  63.0749510  80.8049140  30.3679290  61.7259490  80.7759280  29.6814650
  63.1330660  77.9900220  31.5228020  63.7151430  77.2352540  31.4348500
  63.3092430  78.5207660  30.7459500  54.2502730  73.1496970  29.8344970
  54.1559600  72.5317720  29.1095840  53.6700120  73.8763260  29.6074880
  57.0164170  71.7070210  26.8672360  56.5681470  71.7294470  26.0217910
  56.3829370  71.3089230  27.4642660  59.7587620  78.3340720  28.8722640
  59.8783830  77.7381860  29.6117480  60.6181620  78.3710410  28.4523940
  62.0975520  78.8877910  27.4485150  61.5710740  79.4120530  26.8450290
  62.4406860  79.5205300  28.0794880  54.4961910  76.2771280  13.8934860
  54.2950970  75.4138640  14.2548200  54.3253960  76.1904640  12.9556460
  56.5256390  74.8762070  30.1298460  57.1156080  74.5677920  30.8176280
  55.7076630  74.4041820  30.2858360  61.3449820  74.4927880  30.3631480
  60.6565340  73.8309420  30.2981470  62.0655840  74.0466150  30.8079940
  61.9750220  71.0879510  16.4221740  62.2552510  70.2447410  16.7781160
  61.2015950  71.3202620  16.9360490  53.2944710  73.3771900  13.8812740
  53.5970610  73.3839330  12.9731890  54.0339300  73.0269760  14.3780400
  56.5129640  72.3206520  14.8668940  56.1651640  71.6430510  14.2871390
  56.7142410  71.8596030  15.6812330  66.3530940  80.3256240  17.0325650
  67.1149850  80.8952890  17.1385340  66.3685310  79.7583440  17.8033960
  49.8535280  78.8494170  21.2633310  49.1984120  78.5805810  20.6193010
  50.6913230  78.7398650  20.8135290  62.8025720  73.6435460  15.4851800
  63.2210600  73.4566440  14.6448460  62.4961780  72.7914510  15.7954730
  66.3015450  78.5559600  19.1827600  65.9259050  77.7887530  18.7508890
  65.5718570  78.9382300  19.6702530  50.8911210  79.2346740  25.8036650
  51.2584250  79.1474140  26.6832670  50.3222030  78.4713290  25.7043510
  65.6915070  77.7031120  28.8167120  65.4601160  77.4743870  27.9165070
  65.9519620  78.6230670  28.7712010  50.4427210  76.1455830  29.7095070
  49.5483260  76.1122590  30.0488780  50.9824760  76.3442620  30.4746320
  64.1303140  72.9287550  31.5946820  65.0073320  72.9370950  31.9780820
  64.1423980  72.1918390  30.9839170  49.0673360  76.0593100  17.2058640
  48.1637440  76.3223300  17.0310300  49.5513980  76.3304270  16.4258600
  65.5766410  76.7817090  22.4834840  66.1003890  76.2879740  21.8525010
  66.1625830  76.9167450  23.2282410  65.7556130  76.8656960  26.0054390
  64.8058840  76.8320500  26.1199380  65.9369140  77.7757070  25.7704160
  51.6100570  75.1158640  15.1153020  52.3192270  74.6941860  14.6300300
  50.8940510  75.1833870  14.4836370  51.2574730  71.1697970  14.1555670
  51.9802860  71.7106910  14.4736890  51.5299250  70.8961390  13.2797210
  65.0666380  76.0390440  18.4227250  65.5625500  75.8061310  19.2076130
  64.8682450  75.2002280  18.0064890  50.9466920  70.4204160  24.0578290
  51.5943110  69.8701540  23.6173450  51.3668760  70.6747310  24.8794100
  66.4953540  74.6751390  20.9564930  66.3852820  74.5207430  21.8947200
  67.2561130  74.1472330  20.7140340  64.8419260  70.6145520  27.4147930
  65.4791480  71.2279660  27.7807120  64.9894150  70.6506180  26.4697160
  67.3843810  72.5059310  14.1971070  68.3093120  72.3740490  13.9889360
  67.3619600  72.5852130  15.1507520  67.4582300  73.2769970  16.8227780
  66.6633800  73.2115090  17.3520690  67.6625580  74.2120610  16.8113130
  50.6998920  70.5759830  26.8003610  50.3513740  71.0323650  27.5661790
  50.3686620  69.6816960  26.8826040  58.2123740  71.7671710  30.3223030
  58.1512630  72.3593540  31.0718440  59.1524120  71.6597670  30.1773290
  60.8498300  71.4241770  29.9615320  61.4638710  71.7421060  29.2996400
  61.3947860  70.9390360  30.5811180  51.3719560  70.1036030  30.0754380
  51.9202550  69.9224080  29.3120490  51.4374870  69.3130140  30.6110690
  61.5906340  69.9873910  26.2884610  60.7166180  70.3209020  26.0857540
  61.4817090  69.5147090  27.1136480  62.4978320  72.1944780  27.6726330
  62.1691680  71.3796540  27.2928060  63.4460620  72.1514590  27.5492020
  59.3381160  70.9043750  25.2277520  58.5552950  71.3789250  25.5074280
  59.0444090  69.9998580  25.1190700  63.8902230  71.6066850  23.2726610
  64.3310320  71.5511950  22.4248210  63.6209820  72.5224860  23.3436790
  65.7540800  71.2382090  21.2835430  65.6929200  70.2943310  21.1366450
  66.5332830  71.3462180  21.8288890  50.6821570  71.2091230  17.7491240
  51.4400930  71.3220110  17.1755270  50.2198740  72.0460430  17.7034670
  57.2235380  73.3230500  20.7393550  56.4109890  72.9487390  20.3989430
  57.7277020  72.5675580  21.0414740  61.7260360  69.9872950  21.9776620
  62.3289730  70.5593160  22.4525140  60.9853350  70.5512390  21.7550520
  64.8694960  70.3894510  17.2516900  65.0645590  71.2877960  17.5184330
  64.0824830  70.1581590  17.7449850  53.0546720  71.7355280  16.2893210
  53.5839480  70.9485080  16.1601160  53.6875040  72.4146470  16.5228740
  55.2484560  71.4730420  19.3438600  54.6187300  70.7717730  19.5108730
  54.7089700  72.2334550  19.1271760  55.3740120  70.7514400  31.7791090
  55.0924390  71.2548000  31.0151910  55.7559820  69.9536150  31.4133220
  61.9755580  70.1667980  32.3571560  61.8621030  70.4862590  33.2523080
  62.7925320  70.5680490  32.0608840  60.8813730  78.1860450   2.7206300
  60.8007780  77.2715060   2.4498010  60.4678150  78.6827520   2.0146010
  59.0131770  79.9639470   4.6015570  58.2373870  79.4839910   4.8914140
  59.6644700  79.2845120   4.4271730  53.0297600  80.2759280   5.4791330
  52.1982480  80.0207990   5.8787840  53.6378580  80.3470050   6.2149250
  49.4022560  77.8366820   5.1473420  49.9738670  77.0689020   5.1477060
  49.4024100  78.1355580   4.2380030  50.6447430  73.2451180   6.9342350
  50.4650270  72.3476930   7.2145110  50.2427510  73.7923050   7.6089300
  59.4845930  75.4467040   4.8354660  59.8610750  74.5738920   4.7228330
  59.3865440  75.7825740   3.9445100  63.2670050  72.9417480   1.7683000
  64.0879670  72.4514050   1.8108480  63.3004130  73.5315140   2.5214840
  51.2634100  75.7411680   5.5424690  51.9444210  76.0050050   6.1612090
  50.9482150  74.9012550   5.8762700  55.4558670  76.7879040   4.6297280
  55.9636890  77.2860010   5.2702300  55.9871910  76.0114240   4.4536640
  67.5569600  74.9584230   8.3326630  66.8521770  75.3465940   7.8141740
  67.8227520  75.6534520   8.9347560  53.7394770  71.4277600   8.8960700
  53.7413210  71.9449990   8.0906600  52.9099080  70.9507780   8.8730630
  63.5031530  74.8817860   4.5410540  62.7987100  75.1702750   5.1213650
  63.8643690  75.6917970   4.1810100  53.4210100  73.1387560   6.9031150
  53.7626910  73.9829610   6.6085020  52.4825910  73.2871300   7.0196490
  66.5718450  74.3272650   4.9319750  65.6243360  74.3611630   5.0635180
  66.8968440  75.1411600   5.3169110  57.1037990  70.6269830   3.2275740
  57.4112970  70.0716720   2.5111240  56.1738690  70.7614290   3.0448730
  66.0000590  79.6454180   6.9382050  65.1719220  79.7147270   6.4632180
  66.5951070  80.2308490   6.4697880  62.9642600  76.4323500   7.8836920
  62.5513780  77.2577210   8.1376910  62.2318550  75.8468540   7.6913280
  55.0975390  79.2183400   2.7455590  54.6932390  78.5060650   2.2501490
  55.1838510  78.8736640   3.6343630  53.8104010  75.9926610   6.5254630
  54.3618600  76.1021950   5.7507880  54.3247520  76.3664210   7.2409860
  53.4846740  79.5145970  10.1359970  53.3454510  80.3868770  10.5047370
  52.6028100  79.1718780   9.9907910  66.4899170  75.4840080  11.7659040
  65.8743440  75.9919750  11.2374500  66.1695590  74.5838410  11.7084980
  54.2643680  71.4563450   3.6285910  53.8211830  72.2372990   3.2970430
  54.8228670  71.7793340   4.3356850  58.5513490  74.3231970   9.2321230
  58.0892860  74.5314990  10.0441170  58.1491600  73.5091320   8.9291900
  63.5518000  75.5440920  10.3617890  62.7011590  75.2446670  10.6826960
  63.3919790  75.7882930   9.4501710  60.6467710  77.0442670  12.4616680
  60.9721120  76.2106420  12.1218910  61.4348040  77.5671190  12.6095010
  56.3019580  72.0010780   5.4875510  56.5991910  72.9073610   5.4067530
  56.8505140  71.5129560   4.8735080  56.4957110  77.4782600  12.0227430
  56.4000710  76.5377330  11.8727830  57.3389090  77.6997670  11.6275500
  51.6267650  73.8896270  10.1761210  51.2331040  74.7371480  10.3833990
  50.9386050  73.2522640  10.3669850  58.2012700  73.9731240  13.2457950
  57.5111020  73.7803440  13.8804040  58.9445000  74.2565880  13.7782250
  48.9284700  71.8124730   4.2091290  48.6397750  72.3827590   4.9216270
  49.6730460  71.3329180   4.5722520  60.4775670  77.8129680   6.0811870
  59.7456790  78.3216490   6.4301970  60.0800010  76.9959660   5.7800650
  56.9153060  74.4883880   4.4864360  56.9189120  74.0473830   3.6368900
  57.8104180  74.8101210   4.5936180  52.7655440  74.3710370   3.4458570
  52.4255490  74.8485600   4.2025620  52.0032760  73.9175490   3.0859670
  60.9401580  73.2663360   5.4934810  60.9574320  73.7172010   6.3376660
  60.6917160  72.3669000   5.7068250  64.3672330  70.6795540  11.3321190
  64.6918100  69.9485200  11.8579170  64.4028840  70.3609180  10.4302180
  57.2161030  78.5485660   6.2329770  57.5831160  78.0744230   6.9791110
  57.0266090  79.4227230   6.5738110  50.0801520  73.2929350   2.3623240
  49.7948440  72.9285020   3.2001860  50.0180380  72.5609810   1.7486380
  55.0060400  77.5894300   8.5513980  54.7017470  78.4686280   8.7764340
  55.9606860  77.6494090   8.5871420  59.6748970  80.8629710  10.8276220
  59.6086280  79.9425380  10.5733810  59.0454110  80.9605150  11.5420860
  51.0624130  78.4297040   9.6985340  50.7039070  79.0950890  10.2858680
  50.7678690  77.5980590  10.0697960  54.2637250  78.8881280  12.5824890
  53.9637390  79.0338460  11.6852710  55.0348490  78.3286570  12.4898280
  65.8176910  80.3257620   9.9248600  65.0925100  80.9186400   9.7277990
  66.3452370  80.3181160   9.1261970  49.6372700  71.9190280  10.3757440
  48.9231220  72.1187200  10.9810050  50.0567740  71.1429850  10.7472240
  61.1311480  74.4112590   8.1258890  61.4992300  73.5907800   8.4538460
  60.2709680  74.4714480   8.5414540  58.0913470  77.0652180   8.3496860
  58.5898720  77.5398000   9.0148710  58.2336420  76.1415700   8.5566890
  65.2980330  73.2820140   9.1925250  64.7953930  74.0225540   9.5319060
  66.1136990  73.6704140   8.8762040  63.5902340  78.5253320   2.6386610
  62.6492480  78.5403550   2.8134300  63.9046410  77.7389280   3.0846910
  49.7901540  79.4612910  12.1179630  50.2940560  78.8820190  12.6895860
  49.0508960  79.7453140  12.6556000  51.8224620  77.6042500  13.0129700
  51.8629960  77.3056370  13.9214930  52.6770120  78.0050110  12.8537220
  53.7630430  76.1834600  10.9804190  53.2326890  75.6925550  10.3527530
  54.4318500  76.6118800  10.4462120  62.6608490  80.6504060  10.7445380
  63.0749510  80.8049140  11.5935800  61.7259490  80.7759280  10.9071160
  63.1330660  77.9900220  12.7484530  63.7151430  77.2352540  12.6605010
  63.3092430  78.5207660  11.9716010  54.2502730  73.1496970  11.0601480
  54.1559600  72.5317720  10.3352350  53.6700120  73.8763260  10.8331390
  57.0164170  71.7070210   8.0928870  56.5681470  71.7294470   7.2474420
  56.3829370  71.3089230   8.6899170  59.7587620  78.3340720  10.0979150
  59.8783830  77.7381860  10.8373990  60.6181620  78.3710410   9.6780450
  62.0975520  78.8877910   8.6741660  61.5710740  79.4120530   8.0706800
  62.4406860  79.5205300   9.3051390  56.5256390  74.8762070  11.3554970
  57.1156080  74.5677920  12.0432790  55.7076630  74.4041820  11.5114870
  61.3449820  74.4927880  11.5887990  60.6565340  73.8309420  11.5237980
  62.0655840  74.0466150  12.0336450  49.8535280  78.8494170   2.4889820
  49.1984120  78.5805810   1.8449520  50.6913230  78.7398650   2.0391800
  50.8911210  79.2346740   7.0293160  51.2584250  79.1474140   7.9089180
  50.3222030  78.4713290   6.9300020  65.6915070  77.7031120  10.0423630
  65.4601160  77.4743870   9.1421580  65.9519620  78.6230670   9.9968520
  50.4427210  76.1455830  10.9351580  49.5483260  76.1122590  11.2745290
  50.9824760  76.3442620  11.7002830  64.1303140  72.9287550  12.8203330
  65.0073320  72.9370950  13.2037330  64.1423980  72.1918390  12.2095680
  65.5766410  76.7817090   3.7091350  66.1003890  76.2879740   3.0781520
  66.1625830  76.9167450   4.4538920  65.7556130  76.8656960   7.2310900
  64.8058840  76.8320500   7.3455890  65.9369140  77.7757070   6.9960670
  50.9466920  70.4204160   5.2834800  51.5943110  69.8701540   4.8429960
  51.3668760  70.6747310   6.1050610  66.4953540  74.6751390   2.1821440
  66.3852820  74.5207430   3.1203710  67.2561130  74.1472330   1.9396850
  64.8419260  70.6145520   8.6404440  65.4791480  71.2279660   9.0063630
  64.9894150  70.6506180   7.6953670  50.6998920  70.5759830   8.0260120
  50.3513740  71.0323650   8.7918300  50.3686620  69.6816960   8.1082550
  58.2123740  71.7671710  11.5479540  58.1512630  72.3593540  12.2974950
  59.1524120  71.6597670  11.4029800  60.8498300  71.4241770  11.1871830
  61.4638710  71.7421060  10.5252910  61.3947860  70.9390360  11.8067690
  51.3719560  70.1036030  11.3010890  51.9202550  69.9224080  10.5377000
  51.4374870  69.3130140  11.8367200  61.5906340  69.9873910   7.5141120
  60.7166180  70.3209020   7.3114050  61.4817090  69.5147090   8.3392990
  62.4978320  72.1944780   8.8982840  62.1691680  71.3796540   8.5184570
  63.4460620  72.1514590   8.7748530  59.3381160  70.9043750   6.4534030
  58.5552950  71.3789250   6.7330790  59.0444090  69.9998580   6.3447210
  63.8902230  71.6066850   4.4983120  64.3310320  71.5511950   3.6504720
  63.6209820  72.5224860   4.5693300  65.7540800  71.2382090   2.5091940
  65.6929200  70.2943310   2.3622960  66.5332830  71.3462180   3.0545400
  61.7260360  69.9872950   3.2033130  62.3289730  70.5593160   3.6781650
  60.9853350  70.5512390   2.9807030  55.3740120  70.7514400  13.0047600
  55.0924390  71.2548000  12.2408420  55.7559820  69.9536150  12.6389730
  61.9755580  70.1667980  13.5828070  61.8621030  70.4862590  14.4779590
  62.7925320  70.5680490  13.2865350  60.8813730  59.4116960  77.8180260
  60.8007780  58.4971570  77.5471970  60.4678150  59.9084030  77.1119970
  59.0131770  61.1895980  79.6989530  58.2373870  60.7096420  79.9888100
  59.6644700  60.5101630  79.5245690  53.0297600  61.5015790  80.5765290
  52.1982480  61.2464500  80.9761800  53.6378580  61.5726560  81.3123210
  63.0339200  65.5956170  78.4788660  62.5720730  64.8243410  78.8075830
  63.8464750  65.6222240  78.9841110  53.0098860  65.5355880  80.7723310
  53.3126900  64.6453620  80.5933530  53.7542450  66.0926100  80.5445560
  51.4389550  56.4617680  74.3607680  50.5506250  56.8033650  74.2587560
  51.7230740  56.2618000  73.4688510  49.4022560  59.0623330  80.2447380
  49.9738670  58.2945530  80.2451020  49.4024100  59.3612090  79.3353990
  59.2602510  67.8814180  78.0992650  58.6413950  68.3371680  77.5287090
  60.1154290  68.0365640  77.6982350  58.4540760  63.8653170  79.7059690
  58.3849040  62.9243110  79.5448820  59.2160620  63.9554580  80.2782260
  59.4845930  56.6723550  79.9328620  59.8610750  55.7995430  79.8202290
  59.3865440  57.0082250  79.0419060  53.6150940  55.0449180  75.3946060
  53.7217690  55.9452910  75.7014820  52.7043300  54.9967150  75.1040710
  63.2670050  54.1673990  76.8656960  64.0879670  53.6770560  76.9082440
  63.3004130  54.7571650  77.6188800  51.2634100  56.9668190  80.6398650
  51.9444210  57.2306560  81.2586050  50.9482150  56.1269060  80.9736660
  55.4558670  58.0135550  79.7271240  55.9636890  58.5116520  80.3676260
  55.9871910  57.2370750  79.5510600  60.1265860  62.7653420  75.4924560
  59.5083130  63.2302870  74.9287280  60.6389110  63.4580900  75.9094070
  63.5031530  56.1074370  79.6384500  62.7987100  56.3959260  80.2187610
  63.8643690  56.9174480  79.2784060  49.4949060  63.4509950  72.8664190
  49.1177040  63.9397050  72.1349090  49.7522130  64.1235230  73.4970720
  65.1194310  65.7249500  81.9011980  64.4357830  66.3948610  81.8928650
  65.6588600  65.9230150  81.1356840  66.5718450  55.5529160  80.0293710
  65.6243360  55.5868140  80.1609140  66.8968440  56.3668110  80.4143070
  57.1037990  51.8526340  78.3249700  57.4112970  51.2973230  77.6085200
  56.1738690  51.9870800  78.1422690  62.6553050  67.5693630  80.6157160
  62.6680210  67.1655920  79.7479420  62.1028270  68.3440920  80.5118590
  63.9498470  64.2909850  75.7047330  63.8394800  63.3484180  75.8296750
  63.9466720  64.6525490  76.5910090  59.4918750  59.9175170  75.0609820
  58.5648030  59.8512550  75.2898290  59.6443570  60.8555300  74.9465060
  59.4787830  56.1892170  72.0576980  58.5391500  56.3506130  72.1429440
  59.7971090  56.9077850  71.5112970  66.0000590  60.8710690  82.0356010
  65.1719220  60.9403780  81.5606140  66.5951070  61.4565000  81.5671840
  63.5216040  61.4795470  75.5645070  62.9028460  61.1415020  74.9171370
  63.5040490  60.8355230  76.2724260  55.0975390  60.4439910  77.8429550
  54.6932390  59.7317160  77.3475450  55.1838510  60.0993150  78.7317590
  55.5657090  64.1307470  80.0068760  55.2685380  63.5252940  79.3276540
  56.5156910  64.1684780  79.8958120  61.6980740  60.7182280  72.5717820
  62.1374020  59.8804710  72.4255640  62.4109160  61.3511680  72.6581960
  59.8076120  65.6578350  76.5399060  60.2472030  66.4002680  76.1254450
  59.7463010  65.9004920  77.4638020  65.2797880  51.9725090  70.8858860
  64.9670540  52.0651920  71.7857930  66.0410350  52.5506120  70.8356290
  51.7980020  59.3384890  75.3436200  51.6777620  60.0646980  74.7317470
  51.4880910  58.5687800  74.8664110  49.4365390  62.5100030  81.1504840
  49.5145810  62.6448800  80.2060560  50.0507070  61.8015920  81.3432960
  50.6813020  64.2100220  77.5611020  50.2741100  64.3514810  76.7064620
  51.5726030  63.9260380  77.3582230  62.4746300  68.6447470  73.8962070
  62.3147440  68.3550410  74.7943900  62.3093010  67.8687600  73.3607300
  54.9534680  68.4246000  75.6733690  54.7777160  67.5081540  75.4601490
  54.0990420  68.7833290  75.9131490  62.1772430  66.1535030  72.4560070
  61.4837590  66.1512320  71.7962350  62.9195290  65.7294350  72.0254240
  61.7422360  67.7797740  76.5308560  62.1979310  66.9987120  76.8447180
  62.0814880  68.4904560  77.0749740  54.2643680  52.6819960  78.7259870
  53.8211830  53.4629500  78.3944390  54.8228670  53.0049850  79.4330810
  57.3802500  52.3030660  73.6065700  56.7556680  52.2990530  74.3319010
  57.2932620  51.4361620  73.2101670  56.3019580  53.2267290  80.5849470
  56.5991910  54.1330120  80.5041490  56.8505140  52.7386070  79.9709040
  54.0557900  57.8053530  76.4541120  53.8298820  57.5890700  77.3587740
  53.2750430  58.2381990  76.1087090  61.2855660  57.8116900  75.0531770
  60.6864550  58.5352700  74.8695390  61.8335270  57.7493680  74.2708220
  59.8920530  56.4480440  77.0835050  60.2850100  56.7652640  76.2703740
  60.2537380  55.5692320  77.1979570  48.9284700  53.0381240  79.3065250
  48.6397750  53.6084100  80.0190230  49.6730460  52.5585690  79.6696480
  49.1154930  56.9801360  70.5167970  49.0329600  57.9232120  70.6582960
  48.7637990  56.8376270  69.6380320  60.4775670  59.0386190  81.1785830
  59.7456790  59.5473000  81.5275930  60.0800010  58.2216170  80.8774610
  56.9153060  55.7140390  79.5838320  56.9189120  55.2730340  78.7342860
  57.8104180  56.0357720  79.6910140  52.7655440  55.5966880  78.5432530
  52.4255490  56.0742110  79.2999580  52.0032760  55.1432000  78.1833630
  56.9773210  56.7152470  72.5745080  57.0986030  56.6738950  73.5230900
  56.5921720  57.5776620  72.4191810  60.9401580  54.4919870  80.5908770
  60.9574320  54.9428520  81.4350620  60.6917160  53.5925510  80.8042210
  55.9894710  59.0253610  71.9728380  55.4211610  58.5771860  71.3464290
  56.6983710  59.3846390  71.4393530  50.0801520  54.5185860  77.4597200
  49.7948440  54.1541530  78.2975820  50.0180380  53.7866320  76.8460340
  53.5342190  63.0211800  74.2454790  52.7604450  62.4809420  74.0853510
  54.2636820  62.5018410  73.9072550  64.2930170  62.0177160  80.0381180
  65.0129290  62.5132450  79.6477290  64.0911990  61.3395050  79.3935050
  59.7540110  53.4115120  74.1810570  58.9404720  52.9128290  74.1055880
  59.5602060  54.2513370  73.7646920  62.4688500  57.7834770  72.4772730
  63.3568120  58.0952000  72.3024070  62.4393590  56.9107020  72.0853310
  53.5779590  62.6892180  77.8833600  54.0958260  61.8860440  77.8290490
  53.1263610  62.6271320  78.7250430  58.4649090  63.9558460  73.1560900
  58.8064790  64.7000690  72.6604220  57.6361800  64.2689580  73.5185730
  64.7402770  59.0946610  71.9452590  64.6566490  59.5260830  71.0949030
  65.4596960  59.5544960  72.3779410  65.7690020  65.9488870  74.6734720
  65.1266180  65.2944490  74.9478440  65.3820680  66.3543960  73.8975390
  61.3476500  63.2774300  78.5206410  61.7000320  62.6802430  77.8607780
  60.4638830  62.9518530  78.6914660  57.4339780  64.0371990  75.9276820
  58.1210910  64.5841200  76.3084410  56.6472200  64.5812720  75.9626430
  49.5732180  59.6544810  71.4193900  50.4427030  59.9369610  71.7029820
  49.0822500  60.4680680  71.3042710  56.7366990  61.0418020  75.5402180
  57.1929770  61.8523270  75.7662370  56.3855200  60.7241160  76.3720670
  52.6378770  51.3855670  76.0124700  52.5093400  51.3773570  76.9609620
  51.8140790  51.7238760  75.6615710  60.3131680  64.5556710  81.4871930
  60.9553910  63.8549870  81.6004100  60.8381030  65.3355150  81.3068820
  64.1587400  64.8405330  71.2111070  63.9324980  64.1235770  71.8035710
  63.7683600  64.5917770  70.3732820  49.9403430  68.8672190  71.9855530
  50.3001070  69.4661530  71.3312800  49.7995770  69.4132080  72.7590560
  63.7403650  62.7577270  72.8725230  63.4525350  63.2189960  73.6603110
  64.5355820  62.2975040  73.1409450  55.9572050  66.2503390  72.8029200
  55.9482150  66.9833080  72.1873710  55.0370410  66.0034970  72.8956160
  51.5578690  61.4718280  73.5475960  50.9506640  62.2117180  73.5571260
  52.0328040  61.5617640  72.7214160  64.4973510  54.5926040  74.0320410
  63.8686670  54.6971710  73.3178640  64.0025430  54.8122820  74.8214290
  58.9431650  66.3131630  71.4654390  59.0443630  66.1095620  70.5356370
  58.0433390  66.0589910  71.6702170  56.4657540  56.8711990  75.4478290
  55.7573690  57.3398330  75.8891900  56.7502020  56.2134000  76.0823480
  60.4972970  53.5962650  76.8874080  60.3740750  53.6148780  75.9383590
  61.4457530  53.6441590  77.0072480  57.5849760  68.8317950  76.1602060
  57.8391260  68.7939340  75.2381430  56.6362240  68.7051280  76.1530310
  54.6692560  55.1797070  72.8229000  55.5183090  55.6167220  72.7569190
  54.3023830  55.4917330  73.6501060  63.5902340  59.7509830  77.7360570
  62.6492480  59.7660060  77.9108260  63.9046410  58.9645790  78.1820870
  53.5683980  61.4329430  71.2964530  54.3347250  61.3210790  71.8589960
  53.6458670  60.7367400  70.6441300  52.2630740  58.8654500  71.9797420
  52.3434330  57.9182010  72.0914820  53.1550490  59.1961380  72.0858080
  65.5927920  66.9218680  79.4114830  65.7175340  67.7449850  79.8838640
  66.4593480  66.7109410  79.0638980  53.0645450  69.0149890  79.0831960
  53.8007930  68.4665350  79.3540530  53.4486370  69.8805900  78.9437950
  49.9490930  65.0823460  74.9573470  49.0230710  65.3244600  74.9478880
  50.4147360  65.9097720  74.8358220  56.1747760  68.1880200  70.9057530
  56.9676370  68.4769030  70.4539320  55.6552110  67.7572370  70.2270010
  65.2277930  67.4150330  72.3294270  64.9419440  67.0015470  71.5148450
  65.0297480  68.3438040  72.2094790  56.6925160  63.4083610  70.7699880
  56.5875800  62.7935960  71.4961260  56.5249380  62.8849500  69.9862890
  59.9327890  62.4703640  71.3741870  59.3837990  62.9172940  72.0184610
  60.5547150  61.9652890  71.8979540  55.6003010  61.4294560  73.2707170
  56.0219430  61.2634430  74.1138560  55.7253850  60.6194790  72.7762310
  58.1130650  60.4532170  70.5184270  58.6336310  59.7381190  70.1525420
  58.7599050  61.0918040  70.8184780  54.4961910  57.5027790  70.2165330
  54.2950970  56.6395150  70.5778670  54.3253960  57.4161150  69.2786930
  61.9750220  52.3136020  72.7452210  62.2552510  51.4703920  73.1011630
  61.2015950  52.5459130  73.2590960  53.2944710  54.6028410  70.2043210
  53.5970610  54.6095840  69.2962360  54.0339300  54.2526270  70.7010870
  56.5129640  53.5463030  71.1899410  56.1651640  52.8687020  70.6101860
  56.7142410  53.0852540  72.0042800  58.6778680  68.5343780  72.8086010
  59.5729470  68.8728750  72.8304770  58.7096310  67.8123190  72.1810290
  52.3174840  63.9070830  71.0373010  52.7549710  64.4500500  71.6930590
  52.8022570  63.0817780  71.0469350  49.5320640  66.6959860  78.4893270
  49.8623650  65.8280920  78.2571910  49.9611640  66.9018380  79.3198230
  54.1282560  65.0268870  76.1495240  53.8278100  64.9033840  77.0499150
  54.0220050  64.1677460  75.7410970  66.8974480  64.8065270  70.8521920
  66.0667440  64.8741920  71.3229150  67.0746310  65.6969390  70.5488780
  66.3530940  61.5512750  73.3556120  67.1149850  62.1209400  73.4615810
  66.3685310  60.9839950  74.1264430  49.8535280  60.0750680  77.5863780
  49.1984120  59.8062320  76.9423480  50.6913230  59.9655160  77.1365760
  67.3590910  62.4062850  78.1998050  67.7299740  61.6230170  77.7934020
  67.9992840  63.0951950  78.0215350  66.4050110  61.8447120  70.5128640
  66.6798950  62.7526000  70.3847860  66.2160850  61.7809650  71.4490630
  62.8025720  54.8691970  71.8082270  63.2210600  54.6822950  70.9678930
  62.4961780  54.0171020  72.1185200  66.3015450  59.7816110  75.5058070
  65.9259050  59.0144040  75.0739360  65.5718570  60.1638810  75.9933000
  49.0673360  57.2849610  73.5289110  48.1637440  57.5479810  73.3540770
  49.5513980  57.5560780  72.7489070  65.5766410  58.0073600  78.8065310
  66.1003890  57.5136250  78.1755480  66.1625830  58.1423960  79.5512880
  51.6100570  56.3415150  71.4383490  52.3192270  55.9198370  70.9530770
  50.8940510  56.4090380  70.8066840  65.0666380  57.2646950  74.7457720
  65.5625500  57.0317820  75.5306600  64.8682450  56.4258790  74.3295360
  50.9466920  51.6460670  80.3808760  51.5943110  51.0958050  79.9403920
  51.3668760  51.9003820  81.2024570  66.4953540  55.9007900  77.2795400
  66.3852820  55.7463940  78.2177670  67.2561130  55.3728840  77.0370810
  67.3843810  53.7315820  70.5201540  68.3093120  53.5997000  70.3119830
  67.3619600  53.8108640  71.4737990  67.4582300  54.5026480  73.1458250
  66.6633800  54.4371600  73.6751160  67.6625580  55.4377120  73.1343600
  64.4000720  68.5418030  77.1396640  64.9959790  68.2202600  76.4631060
  64.6578870  68.0689850  77.9309910  64.9512930  69.1913330  80.9694370
  64.4915900  69.9429140  80.5952390  64.3225390  68.4719800  80.9109170
  55.3808650  67.5001570  80.1442500  55.8973670  66.8888930  79.6190760
  56.0306030  68.0030350  80.6353510  58.1204150  68.3910060  80.9711480
  58.4081960  68.1364360  80.0944490  58.6327370  67.8387420  81.5617050
  59.3381160  52.1300260  81.5507990  58.5552950  52.6045760  81.8304750
  59.0444090  51.2255090  81.4421170  63.8902230  52.8323360  79.5957080
  64.3310320  52.7768460  78.7478680  63.6209820  53.7481370  79.6667260
  65.7540800  52.4638600  77.6065900  65.6929200  51.5199820  77.4596920
  66.5332830  52.5718690  78.1519360  50.0593550  68.6030960  76.5689850
  49.8915590  67.9701640  77.2671740  49.1928060  68.8090360  76.2184040
  50.6821570  52.4347740  74.0721710  51.4400930  52.5476620  73.4985740
  50.2198740  53.2716940  74.0265140  57.2235380  54.5487010  77.0624020
  56.4109890  54.1743900  76.7219900  57.7277020  53.7932090  77.3645210
  61.7260360  51.2129460  78.3007090  62.3289730  51.7849670  78.7755610
  60.9853350  51.7768900  78.0780990  64.8694960  51.6151020  73.5747370
  65.0645590  52.5134470  73.8414800  64.0824830  51.3838100  74.0680320
  51.6656250  67.2964190  74.0139990  51.1403870  67.6772220  73.3101950
  51.5900830  67.9214960  74.7349700  53.0546720  52.9611790  72.6123680
  53.5839480  52.1741590  72.4831630  53.6875040  53.6402980  72.8459210
  55.2484560  52.6986930  75.6669070  54.6187300  51.9974240  75.8339200
  54.7089700  53.4591060  75.4502230  66.4221570  68.8551730  75.3353930
  66.5973760  68.1689470  74.6914850  65.7243140  69.3798780  74.9430600
  54.2649220  69.2446570  72.8889240  54.9968040  68.9605850  72.3413130
  54.5242890  69.0059850  73.7788620  53.4264010  65.3611300  72.8935570
  52.7972890  65.8296400  73.4421400  53.5411840  64.5160520  73.3281760
  60.8813730  59.4116960  59.0436770  60.8007780  58.4971570  58.7728480
  60.4678150  59.9084030  58.3376480  59.0131770  61.1895980  60.9246040
  58.2373870  60.7096420  61.2144610  59.6644700  60.5101630  60.7502200
  53.0297600  61.5015790  61.8021800  52.1982480  61.2464500  62.2018310
  53.6378580  61.5726560  62.5379720  63.0339200  65.5956170  59.7045170
  62.5720730  64.8243410  60.0332340  63.8464750  65.6222240  60.2097620
  53.0098860  65.5355880  61.9979820  53.3126900  64.6453620  61.8190040
  53.7542450  66.0926100  61.7702070  59.2602510  67.8814180  59.3249160
  58.6413950  68.3371680  58.7543600  60.1154290  68.0365640  58.9238860
  58.4540760  63.8653170  60.9316200  58.3849040  62.9243110  60.7705330
  59.2160620  63.9554580  61.5038770  59.4845930  56.6723550  61.1585130
  59.8610750  55.7995430  61.0458800  59.3865440  57.0082250  60.2675570
  63.2670050  54.1673990  58.0913470  64.0879670  53.6770560  58.1338950
  63.3004130  54.7571650  58.8445310  51.2634100  56.9668190  61.8655160
  51.9444210  57.2306560  62.4842560  50.9482150  56.1269060  62.1993170
  55.4558670  58.0135550  60.9527750  55.9636890  58.5116520  61.5932770
  55.9871910  57.2370750  60.7767110  67.5569600  56.1840740  64.6557100
  66.8521770  56.5722450  64.1372210  67.8227520  56.8791030  65.2578030
  60.1265860  62.7653420  56.7181070  59.5083130  63.2302870  56.1543790
  60.6389110  63.4580900  57.1350580  54.9897620  62.2929290  63.3964670
  54.6567000  62.9198210  64.0385740  55.1664300  62.8191170  62.6166340
  63.5031530  56.1074370  60.8641010  62.7987100  56.3959260  61.4444120
  63.8643690  56.9174480  60.5040570  54.2016720  64.2610090  65.2113850
  54.8190720  64.9361170  64.9298300  53.3409840  64.6698070  65.1201350
  65.1194310  65.7249500  63.1268490  64.4357830  66.3948610  63.1185160
  65.6588600  65.9230150  62.3613350  66.5718450  55.5529160  61.2550220
  65.6243360  55.5868140  61.3865650  66.8968440  56.3668110  61.6399580
  62.6553050  67.5693630  61.8413670  62.6680210  67.1655920  60.9735930
  62.1028270  68.3440920  61.7375100  63.9498470  64.2909850  56.9303840
  63.8394800  63.3484180  57.0553260  63.9466720  64.6525490  57.8166600
  62.0538490  62.4723470  63.1696280  62.4707280  62.2583580  62.3349740
  62.7778310  62.7296260  63.7404900  66.0000590  60.8710690  63.2612520
  65.1719220  60.9403780  62.7862650  66.5951070  61.4565000  62.7928350
  63.5216040  61.4795470  56.7901580  62.9028460  61.1415020  56.1427880
  63.5040490  60.8355230  57.4980770  62.9642600  57.6580010  64.2067390
  62.5513780  58.4833720  64.4607380  62.2318550  57.0725050  64.0143750
  55.5657090  64.1307470  61.2325270  55.2685380  63.5252940  60.5533050
  56.5156910  64.1684780  61.1214630  53.8104010  57.2183120  62.8485100
  54.3618600  57.3278460  62.0738350  54.3247520  57.5920720  63.5640330
  63.6542700  67.7039340  64.8948370  63.1773260  68.5111530  64.7020980
  62.9704490  67.0517670  65.0474580  54.6575520  63.8689160  67.8833070
  53.7604050  64.0929130  68.1306470  54.6828390  63.9924100  66.9344470
  61.6980740  60.7182280  53.7974330  62.1374020  59.8804710  53.6512150
  62.4109160  61.3511680  53.8838470  53.4846740  60.7402480  66.4590440
  53.3454510  61.6125280  66.8277840  52.6028100  60.3975290  66.3138380
  59.8076120  65.6578350  57.7655570  60.2472030  66.4002680  57.3510960
  59.7463010  65.9004920  58.6894530  55.2827090  66.6824180  68.6675590
  55.2542520  67.0867130  67.8004020  55.1192060  65.7534540  68.5047190
  65.2797880  51.9725090  52.1115370  64.9670540  52.0651920  53.0114440
  66.0410350  52.5506120  52.0612800  67.2341910  67.4651280  69.9639760
  67.7101630  67.9434170  70.6428840  67.8549070  67.3968770  69.2385260
  49.4365390  62.5100030  62.3761350  49.5145810  62.6448800  61.4317070
  50.0507070  61.8015920  62.5689470  50.6813020  64.2100220  58.7867530
  50.2741100  64.3514810  57.9321130  51.5726030  63.9260380  58.5838740
  66.6375160  64.6564130  67.1239770  66.7638220  64.4176010  66.2056950
  66.6796540  63.8248670  67.5961850  60.4991900  68.3592130  65.6934580
  61.0136570  68.2700140  66.4957010  59.6560980  68.7051830  65.9862490
  62.4746300  68.6447470  55.1218580  62.3147440  68.3550410  56.0200410
  62.3093010  67.8687600  54.5863810  54.9534680  68.4246000  56.8990200
  54.7777160  67.5081540  56.6858000  54.0990420  68.7833290  57.1388000
  61.7422360  67.7797740  57.7565070  62.1979310  66.9987120  58.0703690
  62.0814880  68.4904560  58.3006250  66.4899170  56.7096590  68.0889510
  65.8743440  57.2176260  67.5604970  66.1695590  55.8094920  68.0315450
  49.4924910  63.5514200  64.9155810  49.6555950  63.0819560  64.0975180
  49.9577360  63.0437760  65.5804650  58.5513490  55.5488480  65.5551700
  58.0892860  55.7571500  66.3671640  58.1491600  54.7347830  65.2522370
  63.5518000  56.7697430  66.6848360  62.7011590  56.4703180  67.0057430
  63.3919790  57.0139440  65.7732180  60.6467710  58.2699180  68.7847150
  60.9721120  57.4362930  68.4449380  61.4348040  58.7927700  68.9325480
  61.2855660  57.8116900  56.2788280  60.6864550  58.5352700  56.0951900
  61.8335270  57.7493680  55.4964730  56.4957110  58.7039110  68.3457900
  56.4000710  57.7633840  68.1958300  57.3389090  58.9254180  67.9505970
  59.8920530  56.4480440  58.3091560  60.2850100  56.7652640  57.4960250
  60.2537380  55.5692320  58.4236080  58.2012700  55.1987750  69.5688420
  57.5111020  55.0059950  70.2034510  58.9445000  55.4822390  70.1012720
  60.4775670  59.0386190  62.4042340  59.7456790  59.5473000  62.7532440
  60.0800010  58.2216170  62.1031120  56.9153060  55.7140390  60.8094830
  56.9189120  55.2730340  59.9599370  57.8104180  56.0357720  60.9166650
  60.9401580  54.4919870  61.8165280  60.9574320  54.9428520  62.6607130
  60.6917160  53.5925510  62.0298720  64.3672330  51.9052050  67.6551660
  64.6918100  51.1741710  68.1809640  64.4028840  51.5865690  66.7532650
  51.0663890  62.9265630  67.0751620  50.6818680  62.2859300  67.6734580
  51.3776080  63.6301750  67.6446350  57.2161030  59.7742170  62.5560240
  57.5831160  59.3000740  63.3021580  57.0266090  60.6483740  62.8968580
  55.0060400  58.8150810  64.8744450  54.7017470  59.6942790  65.0994810
  55.9606860  58.8750600  64.9101890  64.2930170  62.0177160  61.2637690
  65.0129290  62.5132450  60.8733800  64.0911990  61.3395050  60.6191560
  59.6748970  62.0886220  67.1506690  59.6086280  61.1681890  66.8964280
  59.0454110  62.1861660  67.8651330  62.4688500  57.7834770  53.7029240
  63.3568120  58.0952000  53.5280580  62.4393590  56.9107020  53.3109820
  53.5779590  62.6892180  59.1090110  54.0958260  61.8860440  59.0547000
  53.1263610  62.6271320  59.9506940  51.0624130  59.6553550  66.0215810
  50.7039070  60.3207400  66.6089150  50.7678690  58.8237100  66.3928430
  54.2637250  60.1137790  68.9055360  53.9637390  60.2594970  68.0083180
  55.0348490  59.5543080  68.8128750  59.6065700  64.9106790  66.9010490
  59.6210240  63.9787750  66.6829400  58.8990800  64.9966550  67.5400260
  64.7402770  59.0946610  53.1709100  64.6566490  59.5260830  52.3205540
  65.4596960  59.5544960  53.6035920  65.8176910  61.5514130  66.2479070
  65.0925100  62.1442910  66.0508460  66.3452370  61.5437670  65.4492440
  65.7690020  65.9488870  55.8991230  65.1266180  65.2944490  56.1734950
  65.3820680  66.3543960  55.1231900  61.3476500  63.2774300  59.7462920
  61.7000320  62.6802430  59.0864290  60.4638830  62.9518530  59.9171170
  57.4339780  64.0371990  57.1533330  58.1210910  64.5841200  57.5340920
  56.6472200  64.5812720  57.1882940  59.0399600  66.5524360  63.9950990
  59.6841820  66.7583740  64.6724410  59.4029040  65.7912760  63.5421840
  60.3131680  64.5556710  62.7128440  60.9553910  63.8549870  62.8260610
  60.8381030  65.3355150  62.5325330  62.0869300  65.3551610  65.9164500
  62.4225540  65.9418300  66.5942420  61.1669640  65.2244320  66.1462290
  49.9403430  68.8672190  53.2112040  50.3001070  69.4661530  52.5569310
  49.7995770  69.4132080  53.9847070  63.7403650  62.7577270  54.0981740
  63.4525350  63.2189960  54.8859620  64.5355820  62.2975040  54.3665960
  49.9245290  67.1327050  67.6854440  50.0336410  66.1921790  67.5449830
  49.2725850  67.3981800  67.0368170  57.9157880  65.4042940  69.0852560
  57.5954750  64.6852180  69.6298250  57.2416240  66.0798010  69.1588620
  55.9572050  66.2503390  54.0285710  55.9482150  66.9833080  53.4130220
  55.0370410  66.0034970  54.1212670  61.1311480  55.6369100  64.4489360
  61.4992300  54.8164310  64.7768930  60.2709680  55.6970990  64.8645010
  64.4973510  54.5926040  55.2576920  63.8686670  54.6971710  54.5435150
  64.0025430  54.8122820  56.0470800  58.0913470  58.2908690  64.6727330
  58.5898720  58.7654510  65.3379180  58.2336420  57.3672210  64.8797360
  60.4972970  53.5962650  58.1130590  60.3740750  53.6148780  57.1640100
  61.4457530  53.6441590  58.2328990  57.5849760  68.8317950  57.3858570
  57.8391260  68.7939340  56.4637940  56.6362240  68.7051280  57.3786820
  65.2980330  54.5076650  65.5155720  64.7953930  55.2482050  65.8549530
  66.1136990  54.8960650  65.1992510  63.5902340  59.7509830  58.9617080
  62.6492480  59.7660060  59.1364770  63.9046410  58.9645790  59.4077380
  65.5927920  66.9218680  60.6371340  65.7175340  67.7449850  61.1095150
  66.4593480  66.7109410  60.2895490  53.0645450  69.0149890  60.3088470
  53.8007930  68.4665350  60.5797040  53.4486370  69.8805900  60.1694460
  49.9490930  65.0823460  56.1829980  49.0230710  65.3244600  56.1735390
  50.4147360  65.9097720  56.0614730  52.0703730  68.1995960  69.4974050
  52.8716460  68.5208010  69.9109450  51.5555550  67.8391540  70.2193960
  56.1747760  68.1880200  52.1314040  56.9676370  68.4769030  51.6795830
  55.6552110  67.7572370  51.4526520  60.9068360  64.3075830  69.4449460
  60.3006520  64.3307430  68.7045210  60.6022470  63.5758870  69.9816710
  62.3368730  68.0356120  68.0558870  63.2890480  67.9514140  68.0059110
  62.1896950  68.6997830  68.7292660  65.2277930  67.4150330  53.5550780
  64.9419440  67.0015470  52.7404960  65.0297480  68.3438040  53.4351300
  49.7901540  60.6869420  68.4410100  50.2940560  60.1076700  69.0126330
  49.0508960  60.9709650  68.9786470  56.8439480  62.0940410  67.9745620
  56.0785150  62.6625410  67.8900290  57.0255440  61.8016620  67.0813850
  63.9862830  63.8245740  68.5320640  64.7272300  64.1621500  68.0288100
  63.2235510  63.9937800  67.9790410  51.8224620  58.8299010  69.3360170
  51.8629960  58.5312880  70.2445400  52.6770120  59.2306620  69.1767690
  53.7630430  57.4091110  67.3034660  53.2326890  56.9182060  66.6758000
  54.4318500  57.8375310  66.7692590  62.6608490  61.8760570  67.0675850
  63.0749510  62.0305650  67.9166270  61.7259490  62.0015790  67.2301630
  63.1330660  59.2156730  69.0715000  63.7151430  58.4609050  68.9835480
  63.3092430  59.7464170  68.2946480  54.2502730  54.3753480  67.3831950
  54.1559600  53.7574230  66.6582820  53.6700120  55.1019770  67.1561860
  57.4223720  61.8281050  65.0371780  57.8411830  62.6713780  64.8648020
  56.5032350  61.9653090  64.8078560  59.7587620  59.5597230  66.4209620
  59.8783830  58.9638370  67.1604460  60.6181620  59.5966920  66.0010920
  62.0975520  60.1134420  64.9972130  61.5710740  60.6377040  64.3937270
  62.4406860  60.7461810  65.6281860  55.2731140  68.1334060  66.1529510
  54.7352230  68.8580120  65.8338210  55.5265100  67.6564400  65.3626850
  56.5256390  56.1018580  67.6785440  57.1156080  55.7934430  68.3663260
  55.7076630  55.6298330  67.8345340  61.3449820  55.7184390  67.9118460
  60.6565340  55.0565930  67.8468450  62.0655840  55.2722660  68.3566920
  61.9750220  52.3136020  53.9708720  62.2552510  51.4703920  54.3268140
  61.2015950  52.5459130  54.4847470  58.1293350  69.3685270  66.4116160
  58.0552050  70.2720410  66.7188530  57.2272190  69.0497170  66.3838230
  58.6778680  68.5343780  54.0342520  59.5729470  68.8728750  54.0561280
  58.7096310  67.8123190  53.4066800  52.3174840  63.9070830  52.2629520
  52.7549710  64.4500500  52.9187100  52.8022570  63.0817780  52.2725860
  49.5320640  66.6959860  59.7149780  49.8623650  65.8280920  59.4828420
  49.9611640  66.9018380  60.5454740  54.1282560  65.0268870  57.3751750
  53.8278100  64.9033840  58.2755660  54.0220050  64.1677460  56.9667480
  50.0210850  67.5630450  62.4531410  49.5841840  67.7431250  63.2855560
  50.5888530  68.3205070  62.3113130  65.6573030  67.0647450  66.7408720
  65.0575020  67.1240010  65.9972640  65.7866930  66.1252430  66.8705570
  66.8974480  64.8065270  52.0778430  66.0667440  64.8741920  52.5485660
  67.0746310  65.6969390  51.7745290  66.3530940  61.5512750  54.5812630
  67.1149850  62.1209400  54.6872320  66.3685310  60.9839950  55.3520940
  67.3590910  62.4062850  59.4254560  67.7299740  61.6230170  59.0190530
  67.9992840  63.0951950  59.2471860  64.3424670  63.7899430  64.8384880
  63.5284510  64.2196590  65.1010670  64.7498870  64.4017840  64.2253930
  66.4050110  61.8447120  51.7385150  66.6798950  62.7526000  51.6104370
  66.2160850  61.7809650  52.6747140  66.3015450  59.7816110  56.7314580
  65.9259050  59.0144040  56.2995870  65.5718570  60.1638810  57.2189510
  50.8911210  60.4603250  63.3523630  51.2584250  60.3730650  64.2319650
  50.3222030  59.6969800  63.2530490  65.6915070  58.9287630  66.3654100
  65.4601160  58.7000380  65.4652050  65.9519620  59.8487180  66.3198990
  50.4427210  57.3712340  67.2582050  49.5483260  57.3379100  67.5975760
  50.9824760  57.5699130  68.0233300  64.1303140  54.1544060  69.1433800
  65.0073320  54.1627460  69.5267800  64.1423980  53.4174900  68.5326150
  65.5766410  58.0073600  60.0321820  66.1003890  57.5136250  59.4011990
  66.1625830  58.1423960  60.7769390  65.7556130  58.0913470  63.5541370
  64.8058840  58.0577010  63.6686360  65.9369140  59.0013580  63.3191140
  65.0666380  57.2646950  55.9714230  65.5625500  57.0317820  56.7563110
  64.8682450  56.4258790  55.5551870  66.4953540  55.9007900  58.5051910
  66.3852820  55.7463940  59.4434180  67.2561130  55.3728840  58.2627320
  64.8419260  51.8402030  64.9634910  65.4791480  52.4536170  65.3294100
  64.9894150  51.8762690  64.0184140  67.3843810  53.7315820  51.7458050
  68.3093120  53.5997000  51.5376340  67.3619600  53.8108640  52.6994500
  67.4582300  54.5026480  54.3714760  66.6633800  54.4371600  54.9007670
  67.6625580  55.4377120  54.3600110  64.4000720  68.5418030  58.3653150
  64.9959790  68.2202600  57.6887570  64.6578870  68.0689850  59.1566420
  52.3063290  64.9735940  68.5143780  52.2632920  64.6028850  69.3958240
  52.4374300  65.9113510  68.6545600  56.0069320  66.5295530  64.1153500
  55.7660680  66.7970090  63.2284020  56.9471960  66.7001260  64.1704360
  58.2123740  52.9928220  67.8710010  58.1512630  53.5850050  68.6205420
  59.1524120  52.8854180  67.7260270  60.8498300  52.6498280  67.5102300
  61.4638710  52.9677570  66.8483380  61.3947860  52.1646870  68.1298160
  67.2673480  68.5489910  64.9164140  66.7731760  68.9458780  64.1991270
  66.6586770  67.9239120  65.3101420  51.3719560  51.3292540  67.6241360
  51.9202550  51.1480590  66.8607470  51.4374870  50.5386650  68.1597670
  52.1451320  67.9198190  65.6341560  51.5511640  67.7882890  66.3731600
  52.1375160  67.0836330  65.1683660  61.5906340  51.2130420  63.8371590
  60.7166180  51.5465530  63.6344520  61.4817090  50.7403600  64.6623460
  62.4978320  53.4201290  65.2213310  62.1691680  52.6053050  64.8415040
  63.4460620  53.3771100  65.0979000  64.9512930  69.1913330  62.1950880
  64.4915900  69.9429140  61.8208900  64.3225390  68.4719800  62.1365680
  51.7763550  65.2856570  64.5849600  51.0497610  64.6661860  64.5175550
  51.8372700  65.6797180  63.7147680  55.3808650  67.5001570  61.3699010
  55.8973670  66.8888930  60.8447270  56.0306030  68.0030350  61.8610020
  58.1204150  68.3910060  62.1967990  58.4081960  68.1364360  61.3201000
  58.6327370  67.8387420  62.7873560  59.3381160  52.1300260  62.7764500
  58.5552950  52.6045760  63.0561260  59.0444090  51.2255090  62.6677680
  63.8902230  52.8323360  60.8213590  64.3310320  52.7768460  59.9735190
  63.6209820  53.7481370  60.8923770  65.7540800  52.4638600  58.8322410
  65.6929200  51.5199820  58.6853430  66.5332830  52.5718690  59.3775870
  50.0593550  68.6030960  57.7946360  49.8915590  67.9701640  58.4928250
  49.1928060  68.8090360  57.4440550  57.2235380  54.5487010  58.2880530
  56.4109890  54.1743900  57.9476410  57.7277020  53.7932090  58.5901720
  61.7260360  51.2129460  59.5263600  62.3289730  51.7849670  60.0012120
  60.9853350  51.7768900  59.3037500  64.8694960  51.6151020  54.8003880
  65.0645590  52.5134470  55.0671310  64.0824830  51.3838100  55.2936830
  51.6656250  67.2964190  55.2396500  51.1403870  67.6772220  54.5358460
  51.5900830  67.9214960  55.9606210  58.1876510  69.3126160  69.5636190
  59.1143820  69.0770430  69.6072150  58.1726940  70.1398160  69.0822220
  66.4221570  68.8551730  56.5610440  66.5973760  68.1689470  55.9171360
  65.7243140  69.3798780  56.1687110  55.3740120  51.9770910  69.3278070
  55.0924390  52.4804510  68.5638890  55.7559820  51.1792660  68.9620200
  54.2649220  69.2446570  54.1145750  54.9968040  68.9605850  53.5669640
  54.5242890  69.0059850  55.0045130  53.4264010  65.3611300  54.1192080
  52.7972890  65.8296400  54.6677910  53.5411840  64.5160520  54.5538270
  61.9755580  51.3924490  69.9058540  61.8621030  51.7119100  70.8010060
  62.7925320  51.7937000  69.6095820  64.7554070  68.5396020  69.3877230
  65.5479390  68.0445250  69.1803190  65.0487220  69.2186160  69.9952840
  67.5569600  56.1840740  45.8813610  66.8521770  56.5722450  45.3628720
  67.8227520  56.8791030  46.4834540  49.4949060  63.4509950  35.3177210
  49.1177040  63.9397050  34.5862110  49.7522130  64.1235230  35.9483740
  66.5718450  55.5529160  42.4806730  65.6243360  55.5868140  42.6122160
  66.8968440  56.3668110  42.8656090  59.4787830  56.1892170  34.5090000
  58.5391500  56.3506130  34.5942460  59.7971090  56.9077850  33.9625990
  61.6980740  60.7182280  35.0230840  62.1374020  59.8804710  34.8768660
  62.4109160  61.3511680  35.1094980  65.2797880  51.9725090  33.3371880
  64.9670540  52.0651920  34.2370950  66.0410350  52.5506120  33.2869310
  67.2341910  67.4651280  51.1896270  67.7101630  67.9434170  51.8685350
  67.8549070  67.3968770  50.4641770  49.4365390  62.5100030  43.6017860
  49.5145810  62.6448800  42.6573580  50.0507070  61.8015920  43.7945980
  50.6813020  64.2100220  40.0124040  50.2741100  64.3514810  39.1577640
  51.5726030  63.9260380  39.8095250  66.6375160  64.6564130  48.3496280
  66.7638220  64.4176010  47.4313460  66.6796540  63.8248670  48.8218360
  62.4746300  68.6447470  36.3475090  62.3147440  68.3550410  37.2456920
  62.3093010  67.8687600  35.8120320  62.1772430  66.1535030  34.9073090
  61.4837590  66.1512320  34.2475370  62.9195290  65.7294350  34.4767260
  66.4899170  56.7096590  49.3146020  65.8743440  57.2176260  48.7861480
  66.1695590  55.8094920  49.2571960  49.4924910  63.5514200  46.1412320
  49.6555950  63.0819560  45.3231690  49.9577360  63.0437760  46.8061160
  64.3672330  51.9052050  48.8808170  64.6918100  51.1741710  49.4066150
  64.4028840  51.5865690  47.9789160  51.0663890  62.9265630  48.3008130
  50.6818680  62.2859300  48.8991090  51.3776080  63.6301750  48.8702860
  62.4688500  57.7834770  34.9285750  63.3568120  58.0952000  34.7537090
  62.4393590  56.9107020  34.5366330  64.7402770  59.0946610  34.3965610
  64.6566490  59.5260830  33.5462050  65.4596960  59.5544960  34.8292430
  49.5732180  59.6544810  33.8706920  50.4427030  59.9369610  34.1542840
  49.0822500  60.4680680  33.7555730  64.1587400  64.8405330  33.6624090
  63.9324980  64.1235770  34.2548730  63.7683600  64.5917770  32.8245840
  49.9403430  68.8672190  34.4368550  50.3001070  69.4661530  33.7825820
  49.7995770  69.4132080  35.2103580  49.9245290  67.1327050  48.9110950
  50.0336410  66.1921790  48.7706340  49.2725850  67.3981800  48.2624680
  55.9572050  66.2503390  35.2542220  55.9482150  66.9833080  34.6386730
  55.0370410  66.0034970  35.3469180  64.4973510  54.5926040  36.4833430
  63.8686670  54.6971710  35.7691660  64.0025430  54.8122820  37.2727310
  58.9431650  66.3131630  33.9167410  59.0443630  66.1095620  32.9869390
  58.0433390  66.0589910  34.1215190  65.2980330  54.5076650  46.7412230
  64.7953930  55.2482050  47.0806040  66.1136990  54.8960650  46.4249020
  53.0645450  69.0149890  41.5344980  53.8007930  68.4665350  41.8053550
  53.4486370  69.8805900  41.3950970  49.9490930  65.0823460  37.4086490
  49.0230710  65.3244600  37.3991900  50.4147360  65.9097720  37.2871240
  52.0703730  68.1995960  50.7230560  52.8716460  68.5208010  51.1365960
  51.5555550  67.8391540  51.4450470  56.1747760  68.1880200  33.3570550
  56.9676370  68.4769030  32.9052340  55.6552110  67.7572370  32.6783030
  65.2277930  67.4150330  34.7807290  64.9419440  67.0015470  33.9661470
  65.0297480  68.3438040  34.6607810  59.9327890  62.4703640  33.8254890
  59.3837990  62.9172940  34.4697630  60.5547150  61.9652890  34.3492560
  63.9862830  63.8245740  49.7577150  64.7272300  64.1621500  49.2544610
  63.2235510  63.9937800  49.2046920  63.1330660  59.2156730  50.2971510
  63.7151430  58.4609050  50.2091990  63.3092430  59.7464170  49.5202990
  53.2944710  54.6028410  32.6556230  53.5970610  54.6095840  31.7475380
  54.0339300  54.2526270  33.1523890  56.5129640  53.5463030  33.6412430
  56.1651640  52.8687020  33.0614880  56.7142410  53.0852540  34.4555820
  52.3174840  63.9070830  33.4886030  52.7549710  64.4500500  34.1443610
  52.8022570  63.0817780  33.4982370  49.5320640  66.6959860  40.9406290
  49.8623650  65.8280920  40.7084930  49.9611640  66.9018380  41.7711250
  50.0210850  67.5630450  43.6787920  49.5841840  67.7431250  44.5112070
  50.5888530  68.3205070  43.5369640  65.6573030  67.0647450  47.9665230
  65.0575020  67.1240010  47.2229150  65.7866930  66.1252430  48.0962080
  66.8974480  64.8065270  33.3034940  66.0667440  64.8741920  33.7742170
  67.0746310  65.6969390  33.0001800  49.8535280  60.0750680  40.0376800
  49.1984120  59.8062320  39.3936500  50.6913230  59.9655160  39.5878780
  66.4050110  61.8447120  32.9641660  66.6798950  62.7526000  32.8360880
  66.2160850  61.7809650  33.9003650  62.8025720  54.8691970  34.2595290
  63.2210600  54.6822950  33.4191950  62.4961780  54.0171020  34.5698220
  65.6915070  58.9287630  47.5910610  65.4601160  58.7000380  46.6908560
  65.9519620  59.8487180  47.5455500  64.1303140  54.1544060  50.3690310
  65.0073320  54.1627460  50.7524310  64.1423980  53.4174900  49.7582660
  49.0673360  57.2849610  35.9802130  48.1637440  57.5479810  35.8053790
  49.5513980  57.5560780  35.2002090  65.5766410  58.0073600  41.2578330
  66.1003890  57.5136250  40.6268500  66.1625830  58.1423960  42.0025900
  51.6100570  56.3415150  33.8896510  52.3192270  55.9198370  33.4043790
  50.8940510  56.4090380  33.2579860  65.0666380  57.2646950  37.1970740
  65.5625500  57.0317820  37.9819620  64.8682450  56.4258790  36.7808380
  66.4953540  55.9007900  39.7308420  66.3852820  55.7463940  40.6690690
  67.2561130  55.3728840  39.4883830  64.8419260  51.8402030  46.1891420
  65.4791480  52.4536170  46.5550610  64.9894150  51.8762690  45.2440650
  67.3843810  53.7315820  32.9714560  68.3093120  53.5997000  32.7632850
  67.3619600  53.8108640  33.9251010  67.4582300  54.5026480  35.5971270
  66.6633800  54.4371600  36.1264180  67.6625580  55.4377120  35.5856620
  64.4000720  68.5418030  39.5909660  64.9959790  68.2202600  38.9144080
  64.6578870  68.0689850  40.3822930  52.3063290  64.9735940  49.7400290
  52.2632920  64.6028850  50.6214750  52.4374300  65.9113510  49.8802110
  67.2673480  68.5489910  46.1420650  66.7731760  68.9458780  45.4247780
  66.6586770  67.9239120  46.5357930  50.0593550  68.6030960  39.0202870
  49.8915590  67.9701640  39.7184760  49.1928060  68.8090360  38.6697060
  51.6656250  67.2964190  36.4653010  51.1403870  67.6772220  35.7614970
  51.5900830  67.9214960  37.1862720  66.4221570  68.8551730  37.7866950
  66.5973760  68.1689470  37.1427870  65.7243140  69.3798780  37.3943620
  54.2649220  69.2446570  35.3402260  54.9968040  68.9605850  34.7926150
  54.5242890  69.0059850  36.2301640  53.4264010  65.3611300  35.3448590
  52.7972890  65.8296400  35.8934420  53.5411840  64.5160520  35.7794780
  64.7554070  68.5396020  50.6133740  65.5479390  68.0445250  50.4059700
  65.0487220  69.2186160  51.2209350  60.8813730  59.4116960  21.4949790
  60.8007780  58.4971570  21.2241500  60.4678150  59.9084030  20.7889500
  59.0131770  61.1895980  23.3759060  58.2373870  60.7096420  23.6657630
  59.6644700  60.5101630  23.2015220  53.0297600  61.5015790  24.2534820
  52.1982480  61.2464500  24.6531330  53.6378580  61.5726560  24.9892740
  63.0339200  65.5956170  22.1558190  62.5720730  64.8243410  22.4845360
  63.8464750  65.6222240  22.6610640  53.0098860  65.5355880  24.4492840
  53.3126900  64.6453620  24.2703060  53.7542450  66.0926100  24.2215090
  51.4389550  56.4617680  18.0377210  50.5506250  56.8033650  17.9357090
  51.7230740  56.2618000  17.1458040  49.4022560  59.0623330  23.9216910
  49.9738670  58.2945530  23.9220550  49.4024100  59.3612090  23.0123520
  59.2602510  67.8814180  21.7762180  58.6413950  68.3371680  21.2056620
  60.1154290  68.0365640  21.3751880  58.4540760  63.8653170  23.3829220
  58.3849040  62.9243110  23.2218350  59.2160620  63.9554580  23.9551790
  50.6447430  54.4707690  25.7085840  50.4650270  53.5733440  25.9888600
  50.2427510  55.0179560  26.3832790  59.4845930  56.6723550  23.6098150
  59.8610750  55.7995430  23.4971820  59.3865440  57.0082250  22.7188590
  53.6150940  55.0449180  19.0715590  53.7217690  55.9452910  19.3784350
  52.7043300  54.9967150  18.7810240  63.2670050  54.1673990  20.5426490
  64.0879670  53.6770560  20.5851970  63.3004130  54.7571650  21.2958330
  51.2634100  56.9668190  24.3168180  51.9444210  57.2306560  24.9355580
  50.9482150  56.1269060  24.6506190  55.4558670  58.0135550  23.4040770
  55.9636890  58.5116520  24.0445790  55.9871910  57.2370750  23.2280130
  67.5569600  56.1840740  27.1070120  66.8521770  56.5722450  26.5885230
  67.8227520  56.8791030  27.7091050  53.7394770  52.6534110  27.6704190
  53.7413210  53.1706500  26.8650090  52.9099080  52.1764290  27.6474120
  60.1265860  62.7653420  19.1694090  59.5083130  63.2302870  18.6056810
  60.6389110  63.4580900  19.5863600  54.9897620  62.2929290  25.8477690
  54.6567000  62.9198210  26.4898760  55.1664300  62.8191170  25.0679360
  63.5031530  56.1074370  23.3154030  62.7987100  56.3959260  23.8957140
  63.8643690  56.9174480  22.9553590  53.4210100  54.3644070  25.6774640
  53.7626910  55.2086120  25.3828510  52.4825910  54.5127810  25.7939980
  54.2016720  64.2610090  27.6626870  54.8190720  64.9361170  27.3811320
  53.3409840  64.6698070  27.5714370  49.4949060  63.4509950  16.5433720
  49.1177040  63.9397050  15.8118620  49.7522130  64.1235230  17.1740250
  65.1194310  65.7249500  25.5781510  64.4357830  66.3948610  25.5698180
  65.6588600  65.9230150  24.8126370  66.5718450  55.5529160  23.7063240
  65.6243360  55.5868140  23.8378670  66.8968440  56.3668110  24.0912600
  57.1037990  51.8526340  22.0019230  57.4112970  51.2973230  21.2854730
  56.1738690  51.9870800  21.8192220  62.6553050  67.5693630  24.2926690
  62.6680210  67.1655920  23.4248950  62.1028270  68.3440920  24.1888120
  63.9498470  64.2909850  19.3816860  63.8394800  63.3484180  19.5066280
  63.9466720  64.6525490  20.2679620  62.0538490  62.4723470  25.6209300
  62.4707280  62.2583580  24.7862760  62.7778310  62.7296260  26.1917920
  59.4918750  59.9175170  18.7379350  58.5648030  59.8512550  18.9667820
  59.6443570  60.8555300  18.6234590  59.4787830  56.1892170  15.7346510
  58.5391500  56.3506130  15.8198970  59.7971090  56.9077850  15.1882500
  66.0000590  60.8710690  25.7125540  65.1719220  60.9403780  25.2375670
  66.5951070  61.4565000  25.2441370  63.5216040  61.4795470  19.2414600
  62.9028460  61.1415020  18.5940900  63.5040490  60.8355230  19.9493790
  62.9642600  57.6580010  26.6580410  62.5513780  58.4833720  26.9120400
  62.2318550  57.0725050  26.4656770  55.0975390  60.4439910  21.5199080
  54.6932390  59.7317160  21.0244980  55.1838510  60.0993150  22.4087120
  55.5657090  64.1307470  23.6838290  55.2685380  63.5252940  23.0046070
  56.5156910  64.1684780  23.5727650  53.8104010  57.2183120  25.2998120
  54.3618600  57.3278460  24.5251370  54.3247520  57.5920720  26.0153350
  63.6542700  67.7039340  27.3461390  63.1773260  68.5111530  27.1534000
  62.9704490  67.0517670  27.4987600  54.6575520  63.8689160  30.3346090
  53.7604050  64.0929130  30.5819490  54.6828390  63.9924100  29.3857490
  61.6980740  60.7182280  16.2487350  62.1374020  59.8804710  16.1025170
  62.4109160  61.3511680  16.3351490  53.4846740  60.7402480  28.9103460
  53.3454510  61.6125280  29.2790860  52.6028100  60.3975290  28.7651400
  59.8076120  65.6578350  20.2168590  60.2472030  66.4002680  19.8023980
  59.7463010  65.9004920  21.1407550  55.2827090  66.6824180  31.1188610
  55.2542520  67.0867130  30.2517040  55.1192060  65.7534540  30.9560210
  65.2797880  51.9725090  14.5628390  64.9670540  52.0651920  15.4627460
  66.0410350  52.5506120  14.5125820  51.7980020  59.3384890  19.0205730
  51.6777620  60.0646980  18.4087000  51.4880910  58.5687800  18.5433640
  67.2341910  67.4651280  32.4152780  67.7101630  67.9434170  33.0941860
  67.8549070  67.3968770  31.6898280  49.4365390  62.5100030  24.8274370
  49.5145810  62.6448800  23.8830090  50.0507070  61.8015920  25.0202490
  50.6813020  64.2100220  21.2380550  50.2741100  64.3514810  20.3834150
  51.5726030  63.9260380  21.0351760  66.6375160  64.6564130  29.5752790
  66.7638220  64.4176010  28.6569970  66.6796540  63.8248670  30.0474870
  60.4991900  68.3592130  28.1447600  61.0136570  68.2700140  28.9470030
  59.6560980  68.7051830  28.4375510  62.4746300  68.6447470  17.5731600
  62.3147440  68.3550410  18.4713430  62.3093010  67.8687600  17.0376830
  54.9534680  68.4246000  19.3503220  54.7777160  67.5081540  19.1371020
  54.0990420  68.7833290  19.5901020  62.1772430  66.1535030  16.1329600
  61.4837590  66.1512320  15.4731880  62.9195290  65.7294350  15.7023770
  61.7422360  67.7797740  20.2078090  62.1979310  66.9987120  20.5216710
  62.0814880  68.4904560  20.7519270  66.4899170  56.7096590  30.5402530
  65.8743440  57.2176260  30.0117990  66.1695590  55.8094920  30.4828470
  49.4924910  63.5514200  27.3668830  49.6555950  63.0819560  26.5488200
  49.9577360  63.0437760  28.0317670  54.2643680  52.6819960  22.4029400
  53.8211830  53.4629500  22.0713920  54.8228670  53.0049850  23.1100340
  58.5513490  55.5488480  28.0064720  58.0892860  55.7571500  28.8184660
  58.1491600  54.7347830  27.7035390  63.5518000  56.7697430  29.1361380
  62.7011590  56.4703180  29.4570450  63.3919790  57.0139440  28.2245200
  60.6467710  58.2699180  31.2360170  60.9721120  57.4362930  30.8962400
  61.4348040  58.7927700  31.3838500  57.3802500  52.3030660  17.2835230
  56.7556680  52.2990530  18.0088540  57.2932620  51.4361620  16.8871200
  56.3019580  53.2267290  24.2619000  56.5991910  54.1330120  24.1811020
  56.8505140  52.7386070  23.6478570  54.0557900  57.8053530  20.1310650
  53.8298820  57.5890700  21.0357270  53.2750430  58.2381990  19.7856620
  61.2855660  57.8116900  18.7301300  60.6864550  58.5352700  18.5464920
  61.8335270  57.7493680  17.9477750  56.4957110  58.7039110  30.7970920
  56.4000710  57.7633840  30.6471320  57.3389090  58.9254180  30.4018990
  59.8920530  56.4480440  20.7604580  60.2850100  56.7652640  19.9473270
  60.2537380  55.5692320  20.8749100  51.6267650  55.1152780  28.9504700
  51.2331040  55.9627990  29.1577480  50.9386050  54.4779150  29.1413340
  58.2012700  55.1987750  32.0201440  57.5111020  55.0059950  32.6547530
  58.9445000  55.4822390  32.5525740  48.9284700  53.0381240  22.9834780
  48.6397750  53.6084100  23.6959760  49.6730460  52.5585690  23.3466010
  49.1154930  56.9801360  14.1937500  49.0329600  57.9232120  14.3352490
  48.7637990  56.8376270  13.3149850  60.4775670  59.0386190  24.8555360
  59.7456790  59.5473000  25.2045460  60.0800010  58.2216170  24.5544140
  56.9153060  55.7140390  23.2607850  56.9189120  55.2730340  22.4112390
  57.8104180  56.0357720  23.3679670  52.7655440  55.5966880  22.2202060
  52.4255490  56.0742110  22.9769110  52.0032760  55.1432000  21.8603160
  56.9773210  56.7152470  16.2514610  57.0986030  56.6738950  17.2000430
  56.5921720  57.5776620  16.0961340  60.9401580  54.4919870  24.2678300
  60.9574320  54.9428520  25.1120150  60.6917160  53.5925510  24.4811740
  55.9894710  59.0253610  15.6497910  55.4211610  58.5771860  15.0233820
  56.6983710  59.3846390  15.1163060  64.3672330  51.9052050  30.1064680
  64.6918100  51.1741710  30.6322660  64.4028840  51.5865690  29.2045670
  51.0663890  62.9265630  29.5264640  50.6818680  62.2859300  30.1247600
  51.3776080  63.6301750  30.0959370  57.2161030  59.7742170  25.0073260
  57.5831160  59.3000740  25.7534600  57.0266090  60.6483740  25.3481600
  50.0801520  54.5185860  21.1366730  49.7948440  54.1541530  21.9745350
  50.0180380  53.7866320  20.5229870  55.0060400  58.8150810  27.3257470
  54.7017470  59.6942790  27.5507830  55.9606860  58.8750600  27.3614910
  53.5342190  63.0211800  17.9224320  52.7604450  62.4809420  17.7623040
  54.2636820  62.5018410  17.5842080  64.2930170  62.0177160  23.7150710
  65.0129290  62.5132450  23.3246820  64.0911990  61.3395050  23.0704580
  59.7540110  53.4115120  17.8580100  58.9404720  52.9128290  17.7825410
  59.5602060  54.2513370  17.4416450  59.6748970  62.0886220  29.6019710
  59.6086280  61.1681890  29.3477300  59.0454110  62.1861660  30.3164350
  62.4688500  57.7834770  16.1542260  63.3568120  58.0952000  15.9793600
  62.4393590  56.9107020  15.7622840  53.5779590  62.6892180  21.5603130
  54.0958260  61.8860440  21.5060020  53.1263610  62.6271320  22.4019960
  58.4649090  63.9558460  16.8330430  58.8064790  64.7000690  16.3373750
  57.6361800  64.2689580  17.1955260  51.0624130  59.6553550  28.4728830
  50.7039070  60.3207400  29.0602170  50.7678690  58.8237100  28.8441450
  59.6065700  64.9106790  29.3523510  59.6210240  63.9787750  29.1342420
  58.8990800  64.9966550  29.9913280  64.7402770  59.0946610  15.6222120
  64.6566490  59.5260830  14.7718560  65.4596960  59.5544960  16.0548940
  65.8176910  61.5514130  28.6992090  65.0925100  62.1442910  28.5021480
  66.3452370  61.5437670  27.9005460  65.7690020  65.9488870  18.3504250
  65.1266180  65.2944490  18.6247970  65.3820680  66.3543960  17.5744920
  61.3476500  63.2774300  22.1975940  61.7000320  62.6802430  21.5377310
  60.4638830  62.9518530  22.3684190  57.4339780  64.0371990  19.6046350
  58.1210910  64.5841200  19.9853940  56.6472200  64.5812720  19.6395960
  49.5732180  59.6544810  15.0963430  50.4427030  59.9369610  15.3799350
  49.0822500  60.4680680  14.9812240  56.7366990  61.0418020  19.2171710
  57.1929770  61.8523270  19.4431900  56.3855200  60.7241160  20.0490200
  59.0399600  66.5524360  26.4464010  59.6841820  66.7583740  27.1237430
  59.4029040  65.7912760  25.9934860  52.6378770  51.3855670  19.6894230
  52.5093400  51.3773570  20.6379150  51.8140790  51.7238760  19.3385240
  60.3131680  64.5556710  25.1641460  60.9553910  63.8549870  25.2773630
  60.8381030  65.3355150  24.9838350  64.1587400  64.8405330  14.8880600
  63.9324980  64.1235770  15.4805240  63.7683600  64.5917770  14.0502350
  62.0869300  65.3551610  28.3677520  62.4225540  65.9418300  29.0455440
  61.1669640  65.2244320  28.5975310  49.9403430  68.8672190  15.6625060
  50.3001070  69.4661530  15.0082330  49.7995770  69.4132080  16.4360090
  63.7403650  62.7577270  16.5494760  63.4525350  63.2189960  17.3372640
  64.5355820  62.2975040  16.8178980  49.9245290  67.1327050  30.1367460
  50.0336410  66.1921790  29.9962850  49.2725850  67.3981800  29.4881190
  57.9157880  65.4042940  31.5365580  57.5954750  64.6852180  32.0811270
  57.2416240  66.0798010  31.6101640  55.9572050  66.2503390  16.4798730
  55.9482150  66.9833080  15.8643240  55.0370410  66.0034970  16.5725690
  51.5578690  61.4718280  17.2245490  50.9506640  62.2117180  17.2340790
  52.0328040  61.5617640  16.3983690  61.1311480  55.6369100  26.9002380
  61.4992300  54.8164310  27.2281950  60.2709680  55.6970990  27.3158030
  64.4973510  54.5926040  17.7089940  63.8686670  54.6971710  16.9948170
  64.0025430  54.8122820  18.4983820  58.9431650  66.3131630  15.1423920
  59.0443630  66.1095620  14.2125900  58.0433390  66.0589910  15.3471700
  56.4657540  56.8711990  19.1247820  55.7573690  57.3398330  19.5661430
  56.7502020  56.2134000  19.7593010  58.0913470  58.2908690  27.1240350
  58.5898720  58.7654510  27.7892200  58.2336420  57.3672210  27.3310380
  60.4972970  53.5962650  20.5643610  60.3740750  53.6148780  19.6153120
  61.4457530  53.6441590  20.6842010  57.5849760  68.8317950  19.8371590
  57.8391260  68.7939340  18.9150960  56.6362240  68.7051280  19.8299840
  54.6692560  55.1797070  16.4998530  55.5183090  55.6167220  16.4338720
  54.3023830  55.4917330  17.3270590  65.2980330  54.5076650  27.9668740
  64.7953930  55.2482050  28.3062550  66.1136990  54.8960650  27.6505530
  63.5902340  59.7509830  21.4130100  62.6492480  59.7660060  21.5877790
  63.9046410  58.9645790  21.8590400  53.5683980  61.4329430  14.9734060
  54.3347250  61.3210790  15.5359490  53.6458670  60.7367400  14.3210830
  52.2630740  58.8654500  15.6566950  52.3434330  57.9182010  15.7684350
  53.1550490  59.1961380  15.7627610  65.5927920  66.9218680  23.0884360
  65.7175340  67.7449850  23.5608170  66.4593480  66.7109410  22.7408510
  53.0645450  69.0149890  22.7601490  53.8007930  68.4665350  23.0310060
  53.4486370  69.8805900  22.6207480  49.9490930  65.0823460  18.6343000
  49.0230710  65.3244600  18.6248410  50.4147360  65.9097720  18.5127750
  52.0703730  68.1995960  31.9487070  52.8716460  68.5208010  32.3622470
  51.5555550  67.8391540  32.6706980  56.1747760  68.1880200  14.5827060
  56.9676370  68.4769030  14.1308850  55.6552110  67.7572370  13.9039540
  60.9068360  64.3075830  31.8962480  60.3006520  64.3307430  31.1558230
  60.6022470  63.5758870  32.4329730  62.3368730  68.0356120  30.5071890
  63.2890480  67.9514140  30.4572130  62.1896950  68.6997830  31.1805680
  65.2277930  67.4150330  16.0063800  64.9419440  67.0015470  15.1917980
  65.0297480  68.3438040  15.8864320  49.7901540  60.6869420  30.8923120
  50.2940560  60.1076700  31.4639350  49.0508960  60.9709650  31.4299490
  56.6925160  63.4083610  14.4469410  56.5875800  62.7935960  15.1730790
  56.5249380  62.8849500  13.6632420  59.9327890  62.4703640  15.0511400
  59.3837990  62.9172940  15.6954140  60.5547150  61.9652890  15.5749070
  63.9862830  63.8245740  30.9833660  64.7272300  64.1621500  30.4801120
  63.2235510  63.9937800  30.4303430  51.8224620  58.8299010  31.7873190
  51.8629960  58.5312880  32.6958420  52.6770120  59.2306620  31.6280710
  55.6003010  61.4294560  16.9476700  56.0219430  61.2634430  17.7908090
  55.7253850  60.6194790  16.4531840  53.7630430  57.4091110  29.7547680
  53.2326890  56.9182060  29.1271020  54.4318500  57.8375310  29.2205610
  58.1130650  60.4532170  14.1953800  58.6336310  59.7381190  13.8294950
  58.7599050  61.0918040  14.4954310  62.6608490  61.8760570  29.5188870
  63.0749510  62.0305650  30.3679290  61.7259490  62.0015790  29.6814650
  63.1330660  59.2156730  31.5228020  63.7151430  58.4609050  31.4348500
  63.3092430  59.7464170  30.7459500  54.2502730  54.3753480  29.8344970
  54.1559600  53.7574230  29.1095840  53.6700120  55.1019770  29.6074880
  57.0164170  52.9326720  26.8672360  56.5681470  52.9550980  26.0217910
  56.3829370  52.5345740  27.4642660  57.4223720  61.8281050  27.4884800
  57.8411830  62.6713780  27.3161040  56.5032350  61.9653090  27.2591580
  59.7587620  59.5597230  28.8722640  59.8783830  58.9638370  29.6117480
  60.6181620  59.5966920  28.4523940  62.0975520  60.1134420  27.4485150
  61.5710740  60.6377040  26.8450290  62.4406860  60.7461810  28.0794880
  54.4961910  57.5027790  13.8934860  54.2950970  56.6395150  14.2548200
  54.3253960  57.4161150  12.9556460  55.2731140  68.1334060  28.6042530
  54.7352230  68.8580120  28.2851230  55.5265100  67.6564400  27.8139870
  56.5256390  56.1018580  30.1298460  57.1156080  55.7934430  30.8176280
  55.7076630  55.6298330  30.2858360  61.3449820  55.7184390  30.3631480
  60.6565340  55.0565930  30.2981470  62.0655840  55.2722660  30.8079940
  61.9750220  52.3136020  16.4221740  62.2552510  51.4703920  16.7781160
  61.2015950  52.5459130  16.9360490  53.2944710  54.6028410  13.8812740
  53.5970610  54.6095840  12.9731890  54.0339300  54.2526270  14.3780400
  58.1293350  69.3685270  28.8629180  58.0552050  70.2720410  29.1701550
  57.2272190  69.0497170  28.8351250  56.5129640  53.5463030  14.8668940
  56.1651640  52.8687020  14.2871390  56.7142410  53.0852540  15.6812330
  58.6778680  68.5343780  16.4855540  59.5729470  68.8728750  16.5074300
  58.7096310  67.8123190  15.8579820  52.3174840  63.9070830  14.7142540
  52.7549710  64.4500500  15.3700120  52.8022570  63.0817780  14.7238880
  49.5320640  66.6959860  22.1662800  49.8623650  65.8280920  21.9341440
  49.9611640  66.9018380  22.9967760  54.1282560  65.0268870  19.8264770
  53.8278100  64.9033840  20.7268680  54.0220050  64.1677460  19.4180500
  50.0210850  67.5630450  24.9044430  49.5841840  67.7431250  25.7368580
  50.5888530  68.3205070  24.7626150  65.6573030  67.0647450  29.1921740
  65.0575020  67.1240010  28.4485660  65.7866930  66.1252430  29.3218590
  66.8974480  64.8065270  14.5291450  66.0667440  64.8741920  14.9998680
  67.0746310  65.6969390  14.2258310  66.3530940  61.5512750  17.0325650
  67.1149850  62.1209400  17.1385340  66.3685310  60.9839950  17.8033960
  49.8535280  60.0750680  21.2633310  49.1984120  59.8062320  20.6193010
  50.6913230  59.9655160  20.8135290  67.3590910  62.4062850  21.8767580
  67.7299740  61.6230170  21.4703550  67.9992840  63.0951950  21.6984880
  64.3424670  63.7899430  27.2897900  63.5284510  64.2196590  27.5523690
  64.7498870  64.4017840  26.6766950  66.4050110  61.8447120  14.1898170
  66.6798950  62.7526000  14.0617390  66.2160850  61.7809650  15.1260160
  62.8025720  54.8691970  15.4851800  63.2210600  54.6822950  14.6448460
  62.4961780  54.0171020  15.7954730  66.3015450  59.7816110  19.1827600
  65.9259050  59.0144040  18.7508890  65.5718570  60.1638810  19.6702530
  50.8911210  60.4603250  25.8036650  51.2584250  60.3730650  26.6832670
  50.3222030  59.6969800  25.7043510  65.6915070  58.9287630  28.8167120
  65.4601160  58.7000380  27.9165070  65.9519620  59.8487180  28.7712010
  50.4427210  57.3712340  29.7095070  49.5483260  57.3379100  30.0488780
  50.9824760  57.5699130  30.4746320  64.1303140  54.1544060  31.5946820
  65.0073320  54.1627460  31.9780820  64.1423980  53.4174900  30.9839170
  49.0673360  57.2849610  17.2058640  48.1637440  57.5479810  17.0310300
  49.5513980  57.5560780  16.4258600  65.5766410  58.0073600  22.4834840
  66.1003890  57.5136250  21.8525010  66.1625830  58.1423960  23.2282410
  65.7556130  58.0913470  26.0054390  64.8058840  58.0577010  26.1199380
  65.9369140  59.0013580  25.7704160  51.6100570  56.3415150  15.1153020
  52.3192270  55.9198370  14.6300300  50.8940510  56.4090380  14.4836370
  51.2574730  52.3954480  14.1555670  51.9802860  52.9363420  14.4736890
  51.5299250  52.1217900  13.2797210  65.0666380  57.2646950  18.4227250
  65.5625500  57.0317820  19.2076130  64.8682450  56.4258790  18.0064890
  50.9466920  51.6460670  24.0578290  51.5943110  51.0958050  23.6173450
  51.3668760  51.9003820  24.8794100  66.4953540  55.9007900  20.9564930
  66.3852820  55.7463940  21.8947200  67.2561130  55.3728840  20.7140340
  64.8419260  51.8402030  27.4147930  65.4791480  52.4536170  27.7807120
  64.9894150  51.8762690  26.4697160  67.3843810  53.7315820  14.1971070
  68.3093120  53.5997000  13.9889360  67.3619600  53.8108640  15.1507520
  67.4582300  54.5026480  16.8227780  66.6633800  54.4371600  17.3520690
  67.6625580  55.4377120  16.8113130  64.4000720  68.5418030  20.8166170
  64.9959790  68.2202600  20.1400590  64.6578870  68.0689850  21.6079440
  50.6998920  51.8016340  26.8003610  50.3513740  52.2580160  27.5661790
  50.3686620  50.9073470  26.8826040  52.3063290  64.9735940  30.9656800
  52.2632920  64.6028850  31.8471260  52.4374300  65.9113510  31.1058620
  56.0069320  66.5295530  26.5666520  55.7660680  66.7970090  25.6797040
  56.9471960  66.7001260  26.6217380  58.2123740  52.9928220  30.3223030
  58.1512630  53.5850050  31.0718440  59.1524120  52.8854180  30.1773290
  60.8498300  52.6498280  29.9615320  61.4638710  52.9677570  29.2996400
  61.3947860  52.1646870  30.5811180  67.2673480  68.5489910  27.3677160
  66.7731760  68.9458780  26.6504290  66.6586770  67.9239120  27.7614440
  51.3719560  51.3292540  30.0754380  51.9202550  51.1480590  29.3120490
  51.4374870  50.5386650  30.6110690  52.1451320  67.9198190  28.0854580
  51.5511640  67.7882890  28.8244620  52.1375160  67.0836330  27.6196680
  61.5906340  51.2130420  26.2884610  60.7166180  51.5465530  26.0857540
  61.4817090  50.7403600  27.1136480  62.4978320  53.4201290  27.6726330
  62.1691680  52.6053050  27.2928060  63.4460620  53.3771100  27.5492020
  64.9512930  69.1913330  24.6463900  64.4915900  69.9429140  24.2721920
  64.3225390  68.4719800  24.5878700  51.7763550  65.2856570  27.0362620
  51.0497610  64.6661860  26.9688570  51.8372700  65.6797180  26.1660700
  55.3808650  67.5001570  23.8212030  55.8973670  66.8888930  23.2960290
  56.0306030  68.0030350  24.3123040  58.1204150  68.3910060  24.6481010
  58.4081960  68.1364360  23.7714020  58.6327370  67.8387420  25.2386580
  59.3381160  52.1300260  25.2277520  58.5552950  52.6045760  25.5074280
  59.0444090  51.2255090  25.1190700  63.8902230  52.8323360  23.2726610
  64.3310320  52.7768460  22.4248210  63.6209820  53.7481370  23.3436790
  65.7540800  52.4638600  21.2835430  65.6929200  51.5199820  21.1366450
  66.5332830  52.5718690  21.8288890  50.0593550  68.6030960  20.2459380
  49.8915590  67.9701640  20.9441270  49.1928060  68.8090360  19.8953570
  50.6821570  52.4347740  17.7491240  51.4400930  52.5476620  17.1755270
  50.2198740  53.2716940  17.7034670  57.2235380  54.5487010  20.7393550
  56.4109890  54.1743900  20.3989430  57.7277020  53.7932090  21.0414740
  61.7260360  51.2129460  21.9776620  62.3289730  51.7849670  22.4525140
  60.9853350  51.7768900  21.7550520  64.8694960  51.6151020  17.2516900
  65.0645590  52.5134470  17.5184330  64.0824830  51.3838100  17.7449850
  51.6656250  67.2964190  17.6909520  51.1403870  67.6772220  16.9871480
  51.5900830  67.9214960  18.4119230  53.0546720  52.9611790  16.2893210
  53.5839480  52.1741590  16.1601160  53.6875040  53.6402980  16.5228740
  55.2484560  52.6986930  19.3438600  54.6187300  51.9974240  19.5108730
  54.7089700  53.4591060  19.1271760  58.1876510  69.3126160  32.0149210
  59.1143820  69.0770430  32.0585170  58.1726940  70.1398160  31.5335240
  66.4221570  68.8551730  19.0123460  66.5973760  68.1689470  18.3684380
  65.7243140  69.3798780  18.6200130  55.3740120  51.9770910  31.7791090
  55.0924390  52.4804510  31.0151910  55.7559820  51.1792660  31.4133220
  54.2649220  69.2446570  16.5658770  54.9968040  68.9605850  16.0182660
  54.5242890  69.0059850  17.4558150  53.4264010  65.3611300  16.5705100
  52.7972890  65.8296400  17.1190930  53.5411840  64.5160520  17.0051290
  61.9755580  51.3924490  32.3571560  61.8621030  51.7119100  33.2523080
  62.7925320  51.7937000  32.0608840  64.7554070  68.5396020  31.8390250
  65.5479390  68.0445250  31.6316210  65.0487220  69.2186160  32.4465860
  60.8813730  59.4116960   2.7206300  60.8007780  58.4971570   2.4498010
  60.4678150  59.9084030   2.0146010  59.0131770  61.1895980   4.6015570
  58.2373870  60.7096420   4.8914140  59.6644700  60.5101630   4.4271730
  53.0297600  61.5015790   5.4791330  52.1982480  61.2464500   5.8787840
  53.6378580  61.5726560   6.2149250  63.0339200  65.5956170   3.3814700
  62.5720730  64.8243410   3.7101870  63.8464750  65.6222240   3.8867150
  53.0098860  65.5355880   5.6749350  53.3126900  64.6453620   5.4959570
  53.7542450  66.0926100   5.4471600  49.4022560  59.0623330   5.1473420
  49.9738670  58.2945530   5.1477060  49.4024100  59.3612090   4.2380030
  59.2602510  67.8814180   3.0018690  58.6413950  68.3371680   2.4313130
  60.1154290  68.0365640   2.6008390  58.4540760  63.8653170   4.6085730
  58.3849040  62.9243110   4.4474860  59.2160620  63.9554580   5.1808300
  50.6447430  54.4707690   6.9342350  50.4650270  53.5733440   7.2145110
  50.2427510  55.0179560   7.6089300  59.4845930  56.6723550   4.8354660
  59.8610750  55.7995430   4.7228330  59.3865440  57.0082250   3.9445100
  63.2670050  54.1673990   1.7683000  64.0879670  53.6770560   1.8108480
  63.3004130  54.7571650   2.5214840  51.2634100  56.9668190   5.5424690
  51.9444210  57.2306560   6.1612090  50.9482150  56.1269060   5.8762700
  55.4558670  58.0135550   4.6297280  55.9636890  58.5116520   5.2702300
  55.9871910  57.2370750   4.4536640  67.5569600  56.1840740   8.3326630
  66.8521770  56.5722450   7.8141740  67.8227520  56.8791030   8.9347560
  53.7394770  52.6534110   8.8960700  53.7413210  53.1706500   8.0906600
  52.9099080  52.1764290   8.8730630  54.9897620  62.2929290   7.0734200
  54.6567000  62.9198210   7.7155270  55.1664300  62.8191170   6.2935870
  63.5031530  56.1074370   4.5410540  62.7987100  56.3959260   5.1213650
  63.8643690  56.9174480   4.1810100  53.4210100  54.3644070   6.9031150
  53.7626910  55.2086120   6.6085020  52.4825910  54.5127810   7.0196490
  54.2016720  64.2610090   8.8883380  54.8190720  64.9361170   8.6067830
  53.3409840  64.6698070   8.7970880  65.1194310  65.7249500   6.8038020
  64.4357830  66.3948610   6.7954690  65.6588600  65.9230150   6.0382880
  66.5718450  55.5529160   4.9319750  65.6243360  55.5868140   5.0635180
  66.8968440  56.3668110   5.3169110  57.1037990  51.8526340   3.2275740
  57.4112970  51.2973230   2.5111240  56.1738690  51.9870800   3.0448730
  62.6553050  67.5693630   5.5183200  62.6680210  67.1655920   4.6505460
  62.1028270  68.3440920   5.4144630  62.0538490  62.4723470   6.8465810
  62.4707280  62.2583580   6.0119270  62.7778310  62.7296260   7.4174430
  66.0000590  60.8710690   6.9382050  65.1719220  60.9403780   6.4632180
  66.5951070  61.4565000   6.4697880  62.9642600  57.6580010   7.8836920
  62.5513780  58.4833720   8.1376910  62.2318550  57.0725050   7.6913280
  55.0975390  60.4439910   2.7455590  54.6932390  59.7317160   2.2501490
  55.1838510  60.0993150   3.6343630  55.5657090  64.1307470   4.9094800
  55.2685380  63.5252940   4.2302580  56.5156910  64.1684780   4.7984160
  53.8104010  57.2183120   6.5254630  54.3618600  57.3278460   5.7507880
  54.3247520  57.5920720   7.2409860  63.6542700  67.7039340   8.5717900
  63.1773260  68.5111530   8.3790510  62.9704490  67.0517670   8.7244110
  54.6575520  63.8689160  11.5602600  53.7604050  64.0929130  11.8076000
  54.6828390  63.9924100  10.6114000  53.4846740  60.7402480  10.1359970
  53.3454510  61.6125280  10.5047370  52.6028100  60.3975290   9.9907910
  55.2827090  66.6824180  12.3445120  55.2542520  67.0867130  11.4773550
  55.1192060  65.7534540  12.1816720  67.2341910  67.4651280  13.6409290
  67.7101630  67.9434170  14.3198370  67.8549070  67.3968770  12.9154790
  49.4365390  62.5100030   6.0530880  49.5145810  62.6448800   5.1086600
  50.0507070  61.8015920   6.2459000  66.6375160  64.6564130  10.8009300
  66.7638220  64.4176010   9.8826480  66.6796540  63.8248670  11.2731380
  60.4991900  68.3592130   9.3704110  61.0136570  68.2700140  10.1726540
  59.6560980  68.7051830   9.6632020  66.4899170  56.7096590  11.7659040
  65.8743440  57.2176260  11.2374500  66.1695590  55.8094920  11.7084980
  49.4924910  63.5514200   8.5925340  49.6555950  63.0819560   7.7744710
  49.9577360  63.0437760   9.2574180  54.2643680  52.6819960   3.6285910
  53.8211830  53.4629500   3.2970430  54.8228670  53.0049850   4.3356850
  58.5513490  55.5488480   9.2321230  58.0892860  55.7571500  10.0441170
  58.1491600  54.7347830   8.9291900  63.5518000  56.7697430  10.3617890
  62.7011590  56.4703180  10.6826960  63.3919790  57.0139440   9.4501710
  60.6467710  58.2699180  12.4616680  60.9721120  57.4362930  12.1218910
  61.4348040  58.7927700  12.6095010  56.3019580  53.2267290   5.4875510
  56.5991910  54.1330120   5.4067530  56.8505140  52.7386070   4.8735080
  56.4957110  58.7039110  12.0227430  56.4000710  57.7633840  11.8727830
  57.3389090  58.9254180  11.6275500  51.6267650  55.1152780  10.1761210
  51.2331040  55.9627990  10.3833990  50.9386050  54.4779150  10.3669850
  58.2012700  55.1987750  13.2457950  57.5111020  55.0059950  13.8804040
  58.9445000  55.4822390  13.7782250  48.9284700  53.0381240   4.2091290
  48.6397750  53.6084100   4.9216270  49.6730460  52.5585690   4.5722520
  60.4775670  59.0386190   6.0811870  59.7456790  59.5473000   6.4301970
  60.0800010  58.2216170   5.7800650  56.9153060  55.7140390   4.4864360
  56.9189120  55.2730340   3.6368900  57.8104180  56.0357720   4.5936180
  52.7655440  55.5966880   3.4458570  52.4255490  56.0742110   4.2025620
  52.0032760  55.1432000   3.0859670  60.9401580  54.4919870   5.4934810
  60.9574320  54.9428520   6.3376660  60.6917160  53.5925510   5.7068250
  64.3672330  51.9052050  11.3321190  64.6918100  51.1741710  11.8579170
  64.4028840  51.5865690  10.4302180  51.0663890  62.9265630  10.7521150
  50.6818680  62.2859300  11.3504110  51.3776080  63.6301750  11.3215880
  57.2161030  59.7742170   6.2329770  57.5831160  59.3000740   6.9791110
  57.0266090  60.6483740   6.5738110  50.0801520  54.5185860   2.3623240
  49.7948440  54.1541530   3.2001860  50.0180380  53.7866320   1.7486380
  55.0060400  58.8150810   8.5513980  54.7017470  59.6942790   8.7764340
  55.9606860  58.8750600   8.5871420  64.2930170  62.0177160   4.9407220
  65.0129290  62.5132450   4.5503330  64.0911990  61.3395050   4.2961090
  59.6748970  62.0886220  10.8276220  59.6086280  61.1681890  10.5733810
  59.0454110  62.1861660  11.5420860  53.5779590  62.6892180   2.7859640
  54.0958260  61.8860440   2.7316530  53.1263610  62.6271320   3.6276470
  51.0624130  59.6553550   9.6985340  50.7039070  60.3207400  10.2858680
  50.7678690  58.8237100  10.0697960  54.2637250  60.1137790  12.5824890
  53.9637390  60.2594970  11.6852710  55.0348490  59.5543080  12.4898280
  59.6065700  64.9106790  10.5780020  59.6210240  63.9787750  10.3598930
  58.8990800  64.9966550  11.2169790  65.8176910  61.5514130   9.9248600
  65.0925100  62.1442910   9.7277990  66.3452370  61.5437670   9.1261970
  61.3476500  63.2774300   3.4232450  61.7000320  62.6802430   2.7633820
  60.4638830  62.9518530   3.5940700  59.0399600  66.5524360   7.6720520
  59.6841820  66.7583740   8.3493940  59.4029040  65.7912760   7.2191370
  60.3131680  64.5556710   6.3897970  60.9553910  63.8549870   6.5030140
  60.8381030  65.3355150   6.2094860  62.0869300  65.3551610   9.5934030
  62.4225540  65.9418300  10.2711950  61.1669640  65.2244320   9.8231820
  49.6372700  53.1446790  10.3757440  48.9231220  53.3443710  10.9810050
  50.0567740  52.3686360  10.7472240  49.9245290  67.1327050  11.3623970
  50.0336410  66.1921790  11.2219360  49.2725850  67.3981800  10.7137700
  57.9157880  65.4042940  12.7622090  57.5954750  64.6852180  13.3067780
  57.2416240  66.0798010  12.8358150  61.1311480  55.6369100   8.1258890
  61.4992300  54.8164310   8.4538460  60.2709680  55.6970990   8.5414540
  58.0913470  58.2908690   8.3496860  58.5898720  58.7654510   9.0148710
  58.2336420  57.3672210   8.5566890  65.2980330  54.5076650   9.1925250
  64.7953930  55.2482050   9.5319060  66.1136990  54.8960650   8.8762040
  63.5902340  59.7509830   2.6386610  62.6492480  59.7660060   2.8134300
  63.9046410  58.9645790   3.0846910  65.5927920  66.9218680   4.3140870
  65.7175340  67.7449850   4.7864680  66.4593480  66.7109410   3.9665020
  53.0645450  69.0149890   3.9858000  53.8007930  68.4665350   4.2566570
  53.4486370  69.8805900   3.8463990  52.0703730  68.1995960  13.1743580
  52.8716460  68.5208010  13.5878980  51.5555550  67.8391540  13.8963490
  60.9068360  64.3075830  13.1218990  60.3006520  64.3307430  12.3814740
  60.6022470  63.5758870  13.6586240  62.3368730  68.0356120  11.7328400
  63.2890480  67.9514140  11.6828640  62.1896950  68.6997830  12.4062190
  49.7901540  60.6869420  12.1179630  50.2940560  60.1076700  12.6895860
  49.0508960  60.9709650  12.6556000  56.8439480  62.0940410  11.6515150
  56.0785150  62.6625410  11.5669820  57.0255440  61.8016620  10.7583380
  63.9862830  63.8245740  12.2090170  64.7272300  64.1621500  11.7057630
  63.2235510  63.9937800  11.6559940  51.8224620  58.8299010  13.0129700
  51.8629960  58.5312880  13.9214930  52.6770120  59.2306620  12.8537220
  53.7630430  57.4091110  10.9804190  53.2326890  56.9182060  10.3527530
  54.4318500  57.8375310  10.4462120  62.6608490  61.8760570  10.7445380
  63.0749510  62.0305650  11.5935800  61.7259490  62.0015790  10.9071160
  63.1330660  59.2156730  12.7484530  63.7151430  58.4609050  12.6605010
  63.3092430  59.7464170  11.9716010  54.2502730  54.3753480  11.0601480
  54.1559600  53.7574230  10.3352350  53.6700120  55.1019770  10.8331390
  57.0164170  52.9326720   8.0928870  56.5681470  52.9550980   7.2474420
  56.3829370  52.5345740   8.6899170  57.4223720  61.8281050   8.7141310
  57.8411830  62.6713780   8.5417550  56.5032350  61.9653090   8.4848090
  59.7587620  59.5597230  10.0979150  59.8783830  58.9638370  10.8373990
  60.6181620  59.5966920   9.6780450  62.0975520  60.1134420   8.6741660
  61.5710740  60.6377040   8.0706800  62.4406860  60.7461810   9.3051390
  55.2731140  68.1334060   9.8299040  54.7352230  68.8580120   9.5107740
  55.5265100  67.6564400   9.0396380  56.5256390  56.1018580  11.3554970
  57.1156080  55.7934430  12.0432790  55.7076630  55.6298330  11.5114870
  61.3449820  55.7184390  11.5887990  60.6565340  55.0565930  11.5237980
  62.0655840  55.2722660  12.0336450  58.1293350  69.3685270  10.0885690
  58.0552050  70.2720410  10.3958060  57.2272190  69.0497170  10.0607760
  49.5320640  66.6959860   3.3919310  49.8623650  65.8280920   3.1597950
  49.9611640  66.9018380   4.2224270  50.0210850  67.5630450   6.1300940
  49.5841840  67.7431250   6.9625090  50.5888530  68.3205070   5.9882660
  65.6573030  67.0647450  10.4178250  65.0575020  67.1240010   9.6742170
  65.7866930  66.1252430  10.5475100  49.8535280  60.0750680   2.4889820
  49.1984120  59.8062320   1.8449520  50.6913230  59.9655160   2.0391800
  67.3590910  62.4062850   3.1024090  67.7299740  61.6230170   2.6960060
  67.9992840  63.0951950   2.9241390  64.3424670  63.7899430   8.5154410
  63.5284510  64.2196590   8.7780200  64.7498870  64.4017840   7.9023460
  50.8911210  60.4603250   7.0293160  51.2584250  60.3730650   7.9089180
  50.3222030  59.6969800   6.9300020  65.6915070  58.9287630  10.0423630
  65.4601160  58.7000380   9.1421580  65.9519620  59.8487180   9.9968520
  50.4427210  57.3712340  10.9351580  49.5483260  57.3379100  11.2745290
  50.9824760  57.5699130  11.7002830  64.1303140  54.1544060  12.8203330
  65.0073320  54.1627460  13.2037330  64.1423980  53.4174900  12.2095680
  65.5766410  58.0073600   3.7091350  66.1003890  57.5136250   3.0781520
  66.1625830  58.1423960   4.4538920  65.7556130  58.0913470   7.2310900
  64.8058840  58.0577010   7.3455890  65.9369140  59.0013580   6.9960670
  50.9466920  51.6460670   5.2834800  51.5943110  51.0958050   4.8429960
  51.3668760  51.9003820   6.1050610  66.4953540  55.9007900   2.1821440
  66.3852820  55.7463940   3.1203710  67.2561130  55.3728840   1.9396850
  64.8419260  51.8402030   8.6404440  65.4791480  52.4536170   9.0063630
  64.9894150  51.8762690   7.6953670  50.6998920  51.8016340   8.0260120
  50.3513740  52.2580160   8.7918300  50.3686620  50.9073470   8.1082550
  52.3063290  64.9735940  12.1913310  52.2632920  64.6028850  13.0727770
  52.4374300  65.9113510  12.3315130  56.0069320  66.5295530   7.7923030
  55.7660680  66.7970090   6.9053550  56.9471960  66.7001260   7.8473890
  58.2123740  52.9928220  11.5479540  58.1512630  53.5850050  12.2974950
  59.1524120  52.8854180  11.4029800  60.8498300  52.6498280  11.1871830
  61.4638710  52.9677570  10.5252910  61.3947860  52.1646870  11.8067690
  67.2673480  68.5489910   8.5933670  66.7731760  68.9458780   7.8760800
  66.6586770  67.9239120   8.9870950  51.3719560  51.3292540  11.3010890
  51.9202550  51.1480590  10.5377000  51.4374870  50.5386650  11.8367200
  52.1451320  67.9198190   9.3111090  51.5511640  67.7882890  10.0501130
  52.1375160  67.0836330   8.8453190  61.5906340  51.2130420   7.5141120
  60.7166180  51.5465530   7.3114050  61.4817090  50.7403600   8.3392990
  62.4978320  53.4201290   8.8982840  62.1691680  52.6053050   8.5184570
  63.4460620  53.3771100   8.7748530  64.9512930  69.1913330   5.8720410
  64.4915900  69.9429140   5.4978430  64.3225390  68.4719800   5.8135210
  51.7763550  65.2856570   8.2619130  51.0497610  64.6661860   8.1945080
  51.8372700  65.6797180   7.3917210  55.3808650  67.5001570   5.0468540
  55.8973670  66.8888930   4.5216800  56.0306030  68.0030350   5.5379550
  58.1204150  68.3910060   5.8737520  58.4081960  68.1364360   4.9970530
  58.6327370  67.8387420   6.4643090  59.3381160  52.1300260   6.4534030
  58.5552950  52.6045760   6.7330790  59.0444090  51.2255090   6.3447210
  63.8902230  52.8323360   4.4983120  64.3310320  52.7768460   3.6504720
  63.6209820  53.7481370   4.5693300  65.7540800  52.4638600   2.5091940
  65.6929200  51.5199820   2.3622960  66.5332830  52.5718690   3.0545400
  61.7260360  51.2129460   3.2033130  62.3289730  51.7849670   3.6781650
  60.9853350  51.7768900   2.9807030  58.1876510  69.3126160  13.2405720
  59.1143820  69.0770430  13.2841680  58.1726940  70.1398160  12.7591750
  55.3740120  51.9770910  13.0047600  55.0924390  52.4804510  12.2408420
  55.7559820  51.1792660  12.6389730  61.9755580  51.3924490  13.5828070
  61.8621030  51.7119100  14.4779590  62.7925320  51.7937000  13.2865350
  64.7554070  68.5396020  13.0646760  65.5479390  68.0445250  12.8572720
  65.0487220  69.2186160  13.6722370  60.8813730  40.6373470  77.8180260
  60.8007780  39.7228080  77.5471970  60.4678150  41.1340540  77.1119970
  59.0131770  42.4152490  79.6989530  58.2373870  41.9352930  79.9888100
  59.6644700  41.7358140  79.5245690  53.0297600  42.7272300  80.5765290
  52.1982480  42.4721010  80.9761800  53.6378580  42.7983070  81.3123210
  63.0339200  46.8212680  78.4788660  62.5720730  46.0499920  78.8075830
  63.8464750  46.8478750  78.9841110  53.0098860  46.7612390  80.7723310
  53.3126900  45.8710130  80.5933530  53.7542450  47.3182610  80.5445560
  51.4389550  37.6874190  74.3607680  50.5506250  38.0290160  74.2587560
  51.7230740  37.4874510  73.4688510  49.4022560  40.2879840  80.2447380
  49.9738670  39.5202040  80.2451020  49.4024100  40.5868600  79.3353990
  59.2602510  49.1070690  78.0992650  58.6413950  49.5628190  77.5287090
  60.1154290  49.2622150  77.6982350  58.4540760  45.0909680  79.7059690
  58.3849040  44.1499620  79.5448820  59.2160620  45.1811090  80.2782260
  59.4845930  37.8980060  79.9328620  59.8610750  37.0251940  79.8202290
  59.3865440  38.2338760  79.0419060  53.6150940  36.2705690  75.3946060
  53.7217690  37.1709420  75.7014820  52.7043300  36.2223660  75.1040710
  63.2670050  35.3930500  76.8656960  64.0879670  34.9027070  76.9082440
  63.3004130  35.9828160  77.6188800  51.2634100  38.1924700  80.6398650
  51.9444210  38.4563070  81.2586050  50.9482150  37.3525570  80.9736660
  55.4558670  39.2392060  79.7271240  55.9636890  39.7373030  80.3676260
  55.9871910  38.4627260  79.5510600  60.1265860  43.9909930  75.4924560
  59.5083130  44.4559380  74.9287280  60.6389110  44.6837410  75.9094070
  63.5031530  37.3330880  79.6384500  62.7987100  37.6215770  80.2187610
  63.8643690  38.1430990  79.2784060  49.4949060  44.6766460  72.8664190
  49.1177040  45.1653560  72.1349090  49.7522130  45.3491740  73.4970720
  65.1194310  46.9506010  81.9011980  64.4357830  47.6205120  81.8928650
  65.6588600  47.1486660  81.1356840  66.5718450  36.7785670  80.0293710
  65.6243360  36.8124650  80.1609140  66.8968440  37.5924620  80.4143070
  57.1037990  33.0782850  78.3249700  57.4112970  32.5229740  77.6085200
  56.1738690  33.2127310  78.1422690  62.6553050  48.7950140  80.6157160
  62.6680210  48.3912430  79.7479420  62.1028270  49.5697430  80.5118590
  63.9498470  45.5166360  75.7047330  63.8394800  44.5740690  75.8296750
  63.9466720  45.8782000  76.5910090  59.4918750  41.1431680  75.0609820
  58.5648030  41.0769060  75.2898290  59.6443570  42.0811810  74.9465060
  59.4787830  37.4148680  72.0576980  58.5391500  37.5762640  72.1429440
  59.7971090  38.1334360  71.5112970  66.0000590  42.0967200  82.0356010
  65.1719220  42.1660290  81.5606140  66.5951070  42.6821510  81.5671840
  63.5216040  42.7051980  75.5645070  62.9028460  42.3671530  74.9171370
  63.5040490  42.0611740  76.2724260  55.0975390  41.6696420  77.8429550
  54.6932390  40.9573670  77.3475450  55.1838510  41.3249660  78.7317590
  55.5657090  45.3563980  80.0068760  55.2685380  44.7509450  79.3276540
  56.5156910  45.3941290  79.8958120  61.6980740  41.9438790  72.5717820
  62.1374020  41.1061220  72.4255640  62.4109160  42.5768190  72.6581960
  59.8076120  46.8834860  76.5399060  60.2472030  47.6259190  76.1254450
  59.7463010  47.1261430  77.4638020  65.2797880  33.1981600  70.8858860
  64.9670540  33.2908430  71.7857930  66.0410350  33.7762630  70.8356290
  51.7980020  40.5641400  75.3436200  51.6777620  41.2903490  74.7317470
  51.4880910  39.7944310  74.8664110  49.4365390  43.7356540  81.1504840
  49.5145810  43.8705310  80.2060560  50.0507070  43.0272430  81.3432960
  50.6813020  45.4356730  77.5611020  50.2741100  45.5771320  76.7064620
  51.5726030  45.1516890  77.3582230  62.4746300  49.8703980  73.8962070
  62.3147440  49.5806920  74.7943900  62.3093010  49.0944110  73.3607300
  54.9534680  49.6502510  75.6733690  54.7777160  48.7338050  75.4601490
  54.0990420  50.0089800  75.9131490  62.1772430  47.3791540  72.4560070
  61.4837590  47.3768830  71.7962350  62.9195290  46.9550860  72.0254240
  61.7422360  49.0054250  76.5308560  62.1979310  48.2243630  76.8447180
  62.0814880  49.7161070  77.0749740  54.2643680  33.9076470  78.7259870
  53.8211830  34.6886010  78.3944390  54.8228670  34.2306360  79.4330810
  57.3802500  33.5287170  73.6065700  56.7556680  33.5247040  74.3319010
  57.2932620  32.6618130  73.2101670  56.3019580  34.4523800  80.5849470
  56.5991910  35.3586630  80.5041490  56.8505140  33.9642580  79.9709040
  54.0557900  39.0310040  76.4541120  53.8298820  38.8147210  77.3587740
  53.2750430  39.4638500  76.1087090  61.2855660  39.0373410  75.0531770
  60.6864550  39.7609210  74.8695390  61.8335270  38.9750190  74.2708220
  59.8920530  37.6736950  77.0835050  60.2850100  37.9909150  76.2703740
  60.2537380  36.7948830  77.1979570  48.9284700  34.2637750  79.3065250
  48.6397750  34.8340610  80.0190230  49.6730460  33.7842200  79.6696480
  49.1154930  38.2057870  70.5167970  49.0329600  39.1488630  70.6582960
  48.7637990  38.0632780  69.6380320  60.4775670  40.2642700  81.1785830
  59.7456790  40.7729510  81.5275930  60.0800010  39.4472680  80.8774610
  56.9153060  36.9396900  79.5838320  56.9189120  36.4986850  78.7342860
  57.8104180  37.2614230  79.6910140  52.7655440  36.8223390  78.5432530
  52.4255490  37.2998620  79.2999580  52.0032760  36.3688510  78.1833630
  56.9773210  37.9408980  72.5745080  57.0986030  37.8995460  73.5230900
  56.5921720  38.8033130  72.4191810  60.9401580  35.7176380  80.5908770
  60.9574320  36.1685030  81.4350620  60.6917160  34.8182020  80.8042210
  55.9894710  40.2510120  71.9728380  55.4211610  39.8028370  71.3464290
  56.6983710  40.6102900  71.4393530  50.0801520  35.7442370  77.4597200
  49.7948440  35.3798040  78.2975820  50.0180380  35.0122830  76.8460340
  53.5342190  44.2468310  74.2454790  52.7604450  43.7065930  74.0853510
  54.2636820  43.7274920  73.9072550  64.2930170  43.2433670  80.0381180
  65.0129290  43.7388960  79.6477290  64.0911990  42.5651560  79.3935050
  59.7540110  34.6371630  74.1810570  58.9404720  34.1384800  74.1055880
  59.5602060  35.4769880  73.7646920  62.4688500  39.0091280  72.4772730
  63.3568120  39.3208510  72.3024070  62.4393590  38.1363530  72.0853310
  53.5779590  43.9148690  77.8833600  54.0958260  43.1116950  77.8290490
  53.1263610  43.8527830  78.7250430  58.4649090  45.1814970  73.1560900
  58.8064790  45.9257200  72.6604220  57.6361800  45.4946090  73.5185730
  64.7402770  40.3203120  71.9452590  64.6566490  40.7517340  71.0949030
  65.4596960  40.7801470  72.3779410  65.7690020  47.1745380  74.6734720
  65.1266180  46.5201000  74.9478440  65.3820680  47.5800470  73.8975390
  61.3476500  44.5030810  78.5206410  61.7000320  43.9058940  77.8607780
  60.4638830  44.1775040  78.6914660  57.4339780  45.2628500  75.9276820
  58.1210910  45.8097710  76.3084410  56.6472200  45.8069230  75.9626430
  49.5732180  40.8801320  71.4193900  50.4427030  41.1626120  71.7029820
  49.0822500  41.6937190  71.3042710  56.7366990  42.2674530  75.5402180
  57.1929770  43.0779780  75.7662370  56.3855200  41.9497670  76.3720670
  52.6378770  32.6112180  76.0124700  52.5093400  32.6030080  76.9609620
  51.8140790  32.9495270  75.6615710  60.3131680  45.7813220  81.4871930
  60.9553910  45.0806380  81.6004100  60.8381030  46.5611660  81.3068820
  64.1587400  46.0661840  71.2111070  63.9324980  45.3492280  71.8035710
  63.7683600  45.8174280  70.3732820  49.9403430  50.0928700  71.9855530
  50.3001070  50.6918040  71.3312800  49.7995770  50.6388590  72.7590560
  63.7403650  43.9833780  72.8725230  63.4525350  44.4446470  73.6603110
  64.5355820  43.5231550  73.1409450  55.9572050  47.4759900  72.8029200
  55.9482150  48.2089590  72.1873710  55.0370410  47.2291480  72.8956160
  51.5578690  42.6974790  73.5475960  50.9506640  43.4373690  73.5571260
  52.0328040  42.7874150  72.7214160  64.4973510  35.8182550  74.0320410
  63.8686670  35.9228220  73.3178640  64.0025430  36.0379330  74.8214290
  58.9431650  47.5388140  71.4654390  59.0443630  47.3352130  70.5356370
  58.0433390  47.2846420  71.6702170  56.4657540  38.0968500  75.4478290
  55.7573690  38.5654840  75.8891900  56.7502020  37.4390510  76.0823480
  60.4972970  34.8219160  76.8874080  60.3740750  34.8405290  75.9383590
  61.4457530  34.8698100  77.0072480  57.5849760  50.0574460  76.1602060
  57.8391260  50.0195850  75.2381430  56.6362240  49.9307790  76.1530310
  54.6692560  36.4053580  72.8229000  55.5183090  36.8423730  72.7569190
  54.3023830  36.7173840  73.6501060  63.5902340  40.9766340  77.7360570
  62.6492480  40.9916570  77.9108260  63.9046410  40.1902300  78.1820870
  53.5683980  42.6585940  71.2964530  54.3347250  42.5467300  71.8589960
  53.6458670  41.9623910  70.6441300  52.2630740  40.0911010  71.9797420
  52.3434330  39.1438520  72.0914820  53.1550490  40.4217890  72.0858080
  65.5927920  48.1475190  79.4114830  65.7175340  48.9706360  79.8838640
  66.4593480  47.9365920  79.0638980  53.0645450  50.2406400  79.0831960
  53.8007930  49.6921860  79.3540530  53.4486370  51.1062410  78.9437950
  49.9490930  46.3079970  74.9573470  49.0230710  46.5501110  74.9478880
  50.4147360  47.1354230  74.8358220  56.1747760  49.4136710  70.9057530
  56.9676370  49.7025540  70.4539320  55.6552110  48.9828880  70.2270010
  65.2277930  48.6406840  72.3294270  64.9419440  48.2271980  71.5148450
  65.0297480  49.5694550  72.2094790  56.6925160  44.6340120  70.7699880
  56.5875800  44.0192470  71.4961260  56.5249380  44.1106010  69.9862890
  59.9327890  43.6960150  71.3741870  59.3837990  44.1429450  72.0184610
  60.5547150  43.1909400  71.8979540  55.6003010  42.6551070  73.2707170
  56.0219430  42.4890940  74.1138560  55.7253850  41.8451300  72.7762310
  58.1130650  41.6788680  70.5184270  58.6336310  40.9637700  70.1525420
  58.7599050  42.3174550  70.8184780  54.4961910  38.7284300  70.2165330
  54.2950970  37.8651660  70.5778670  54.3253960  38.6417660  69.2786930
  61.9750220  33.5392530  72.7452210  62.2552510  32.6960430  73.1011630
  61.2015950  33.7715640  73.2590960  53.2944710  35.8284920  70.2043210
  53.5970610  35.8352350  69.2962360  54.0339300  35.4782780  70.7010870
  56.5129640  34.7719540  71.1899410  56.1651640  34.0943530  70.6101860
  56.7142410  34.3109050  72.0042800  58.6778680  49.7600290  72.8086010
  59.5729470  50.0985260  72.8304770  58.7096310  49.0379700  72.1810290
  52.3174840  45.1327340  71.0373010  52.7549710  45.6757010  71.6930590
  52.8022570  44.3074290  71.0469350  49.5320640  47.9216370  78.4893270
  49.8623650  47.0537430  78.2571910  49.9611640  48.1274890  79.3198230
  54.1282560  46.2525380  76.1495240  53.8278100  46.1290350  77.0499150
  54.0220050  45.3933970  75.7410970  66.8974480  46.0321780  70.8521920
  66.0667440  46.0998430  71.3229150  67.0746310  46.9225900  70.5488780
  66.3530940  42.7769260  73.3556120  67.1149850  43.3465910  73.4615810
  66.3685310  42.2096460  74.1264430  49.8535280  41.3007190  77.5863780
  49.1984120  41.0318830  76.9423480  50.6913230  41.1911670  77.1365760
  67.3590910  43.6319360  78.1998050  67.7299740  42.8486680  77.7934020
  67.9992840  44.3208460  78.0215350  66.4050110  43.0703630  70.5128640
  66.6798950  43.9782510  70.3847860  66.2160850  43.0066160  71.4490630
  62.8025720  36.0948480  71.8082270  63.2210600  35.9079460  70.9678930
  62.4961780  35.2427530  72.1185200  66.3015450  41.0072620  75.5058070
  65.9259050  40.2400550  75.0739360  65.5718570  41.3895320  75.9933000
  49.0673360  38.5106120  73.5289110  48.1637440  38.7736320  73.3540770
  49.5513980  38.7817290  72.7489070  65.5766410  39.2330110  78.8065310
  66.1003890  38.7392760  78.1755480  66.1625830  39.3680470  79.5512880
  51.6100570  37.5671660  71.4383490  52.3192270  37.1454880  70.9530770
  50.8940510  37.6346890  70.8066840  51.2574730  33.6210990  70.4786140
  51.9802860  34.1619930  70.7967360  51.5299250  33.3474410  69.6027680
  65.0666380  38.4903460  74.7457720  65.5625500  38.2574330  75.5306600
  64.8682450  37.6515300  74.3295360  50.9466920  32.8717180  80.3808760
  51.5943110  32.3214560  79.9403920  51.3668760  33.1260330  81.2024570
  66.4953540  37.1264410  77.2795400  66.3852820  36.9720450  78.2177670
  67.2561130  36.5985350  77.0370810  67.3843810  34.9572330  70.5201540
  68.3093120  34.8253510  70.3119830  67.3619600  35.0365150  71.4737990
  67.4582300  35.7282990  73.1458250  66.6633800  35.6628110  73.6751160
  67.6625580  36.6633630  73.1343600  64.4000720  49.7674540  77.1396640
  64.9959790  49.4459110  76.4631060  64.6578870  49.2946360  77.9309910
  64.9512930  50.4169840  80.9694370  64.4915900  51.1685650  80.5952390
  64.3225390  49.6976310  80.9109170  55.3808650  48.7258080  80.1442500
  55.8973670  48.1145440  79.6190760  56.0306030  49.2286860  80.6353510
  58.1204150  49.6166570  80.9711480  58.4081960  49.3620870  80.0944490
  58.6327370  49.0643930  81.5617050  59.3381160  33.3556770  81.5507990
  58.5552950  33.8302270  81.8304750  59.0444090  32.4511600  81.4421170
  63.8902230  34.0579870  79.5957080  64.3310320  34.0024970  78.7478680
  63.6209820  34.9737880  79.6667260  65.7540800  33.6895110  77.6065900
  65.6929200  32.7456330  77.4596920  66.5332830  33.7975200  78.1519360
  50.0593550  49.8287470  76.5689850  49.8915590  49.1958150  77.2671740
  49.1928060  50.0346870  76.2184040  50.6821570  33.6604250  74.0721710
  51.4400930  33.7733130  73.4985740  50.2198740  34.4973450  74.0265140
  57.2235380  35.7743520  77.0624020  56.4109890  35.4000410  76.7219900
  57.7277020  35.0188600  77.3645210  61.7260360  32.4385970  78.3007090
  62.3289730  33.0106180  78.7755610  60.9853350  33.0025410  78.0780990
  64.8694960  32.8407530  73.5747370  65.0645590  33.7390980  73.8414800
  64.0824830  32.6094610  74.0680320  51.6656250  48.5220700  74.0139990
  51.1403870  48.9028730  73.3101950  51.5900830  49.1471470  74.7349700
  53.0546720  34.1868300  72.6123680  53.5839480  33.3998100  72.4831630
  53.6875040  34.8659490  72.8459210  55.2484560  33.9243440  75.6669070
  54.6187300  33.2230750  75.8339200  54.7089700  34.6847570  75.4502230
  66.4221570  50.0808240  75.3353930  66.5973760  49.3945980  74.6914850
  65.7243140  50.6055290  74.9430600  54.2649220  50.4703080  72.8889240
  54.9968040  50.1862360  72.3413130  54.5242890  50.2316360  73.7788620
  53.4264010  46.5867810  72.8935570  52.7972890  47.0552910  73.4421400
  53.5411840  45.7417030  73.3281760  63.0339200  46.8212680  59.7045170
  62.5720730  46.0499920  60.0332340  63.8464750  46.8478750  60.2097620
  59.2602510  49.1070690  59.3249160  58.6413950  49.5628190  58.7543600
  60.1154290  49.2622150  58.9238860  67.5569600  37.4097250  64.6557100
  66.8521770  37.7978960  64.1372210  67.8227520  38.1047540  65.2578030
  53.7394770  33.8790620  65.2191170  53.7413210  34.3963010  64.4137070
  52.9099080  33.4020800  65.1961100  65.1194310  46.9506010  63.1268490
  64.4357830  47.6205120  63.1185160  65.6588600  47.1486660  62.3613350
  66.5718450  36.7785670  61.2550220  65.6243360  36.8124650  61.3865650
  66.8968440  37.5924620  61.6399580  62.6553050  48.7950140  61.8413670
  62.6680210  48.3912430  60.9735930  62.1028270  49.5697430  61.7375100
  63.9498470  45.5166360  56.9303840  63.8394800  44.5740690  57.0553260
  63.9466720  45.8782000  57.8166600  62.0538490  43.6979980  63.1696280
  62.4707280  43.4840090  62.3349740  62.7778310  43.9552770  63.7404900
  66.0000590  42.0967200  63.2612520  65.1719220  42.1660290  62.7862650
  66.5951070  42.6821510  62.7928350  63.5216040  42.7051980  56.7901580
  62.9028460  42.3671530  56.1427880  63.5040490  42.0611740  57.4980770
  62.9642600  38.8836520  64.2067390  62.5513780  39.7090230  64.4607380
  62.2318550  38.2981560  64.0143750  63.6542700  48.9295850  64.8948370
  63.1773260  49.7368040  64.7020980  62.9704490  48.2774180  65.0474580
  54.6575520  45.0945670  67.8833070  53.7604050  45.3185640  68.1306470
  54.6828390  45.2180610  66.9344470  55.2827090  47.9080690  68.6675590
  55.2542520  48.3123640  67.8004020  55.1192060  46.9791050  68.5047190
  65.2797880  33.1981600  52.1115370  64.9670540  33.2908430  53.0114440
  66.0410350  33.7762630  52.0612800  67.2341910  48.6907790  69.9639760
  67.7101630  49.1690680  70.6428840  67.8549070  48.6225280  69.2385260
  66.6375160  45.8820640  67.1239770  66.7638220  45.6432520  66.2056950
  66.6796540  45.0505180  67.5961850  60.4991900  49.5848640  65.6934580
  61.0136570  49.4956650  66.4957010  59.6560980  49.9308340  65.9862490
  62.4746300  49.8703980  55.1218580  62.3147440  49.5806920  56.0200410
  62.3093010  49.0944110  54.5863810  61.7422360  49.0054250  57.7565070
  62.1979310  48.2243630  58.0703690  62.0814880  49.7161070  58.3006250
  66.4899170  37.9353100  68.0889510  65.8743440  38.4432770  67.5604970
  66.1695590  37.0351430  68.0315450  58.5513490  36.7744990  65.5551700
  58.0892860  36.9828010  66.3671640  58.1491600  35.9604340  65.2522370
  63.5518000  37.9953940  66.6848360  62.7011590  37.6959690  67.0057430
  63.3919790  38.2395950  65.7732180  60.6467710  39.4955690  68.7847150
  60.9721120  38.6619440  68.4449380  61.4348040  40.0184210  68.9325480
  61.2855660  39.0373410  56.2788280  60.6864550  39.7609210  56.0951900
  61.8335270  38.9750190  55.4964730  56.4957110  39.9295620  68.3457900
  56.4000710  38.9890350  68.1958300  57.3389090  40.1510690  67.9505970
  51.6267650  36.3409290  66.4991680  51.2331040  37.1884500  66.7064460
  50.9386050  35.7035660  66.6900320  58.2012700  36.4244260  69.5688420
  57.5111020  36.2316460  70.2034510  58.9445000  36.7078900  70.1012720
  64.3672330  33.1308560  67.6551660  64.6918100  32.3998220  68.1809640
  64.4028840  32.8122200  66.7532650  64.2930170  43.2433670  61.2637690
  65.0129290  43.7388960  60.8733800  64.0911990  42.5651560  60.6191560
  59.6748970  43.3142730  67.1506690  59.6086280  42.3938400  66.8964280
  59.0454110  43.4118170  67.8651330  62.4688500  39.0091280  53.7029240
  63.3568120  39.3208510  53.5280580  62.4393590  38.1363530  53.3109820
  54.2637250  41.3394300  68.9055360  53.9637390  41.4851480  68.0083180
  55.0348490  40.7799590  68.8128750  59.6065700  46.1363300  66.9010490
  59.6210240  45.2044260  66.6829400  58.8990800  46.2223060  67.5400260
  64.7402770  40.3203120  53.1709100  64.6566490  40.7517340  52.3205540
  65.4596960  40.7801470  53.6035920  65.8176910  42.7770640  66.2479070
  65.0925100  43.3699420  66.0508460  66.3452370  42.7694180  65.4492440
  65.7690020  47.1745380  55.8991230  65.1266180  46.5201000  56.1734950
  65.3820680  47.5800470  55.1231900  61.3476500  44.5030810  59.7462920
  61.7000320  43.9058940  59.0864290  60.4638830  44.1775040  59.9171170
  59.0399600  47.7780870  63.9950990  59.6841820  47.9840250  64.6724410
  59.4029040  47.0169270  63.5421840  60.3131680  45.7813220  62.7128440
  60.9553910  45.0806380  62.8260610  60.8381030  46.5611660  62.5325330
  64.1587400  46.0661840  52.4367580  63.9324980  45.3492280  53.0292220
  63.7683600  45.8174280  51.5989330  62.0869300  46.5808120  65.9164500
  62.4225540  47.1674810  66.5942420  61.1669640  46.4500830  66.1462290
  49.9245290  48.3583560  67.6854440  50.0336410  47.4178300  67.5449830
  49.2725850  48.6238310  67.0368170  57.9157880  46.6299450  69.0852560
  57.5954750  45.9108690  69.6298250  57.2416240  47.3054520  69.1588620
  64.4973510  35.8182550  55.2576920  63.8686670  35.9228220  54.5435150
  64.0025430  36.0379330  56.0470800  58.0913470  39.5165200  64.6727330
  58.5898720  39.9911020  65.3379180  58.2336420  38.5928720  64.8797360
  65.2980330  35.7333160  65.5155720  64.7953930  36.4738560  65.8549530
  66.1136990  36.1217160  65.1992510  63.5902340  40.9766340  58.9617080
  62.6492480  40.9916570  59.1364770  63.9046410  40.1902300  59.4077380
  65.5927920  48.1475190  60.6371340  65.7175340  48.9706360  61.1095150
  66.4593480  47.9365920  60.2895490  52.0703730  49.4252470  69.4974050
  52.8716460  49.7464520  69.9109450  51.5555550  49.0648050  70.2193960
  60.9068360  45.5332340  69.4449460  60.3006520  45.5563940  68.7045210
  60.6022470  44.8015380  69.9816710  62.3368730  49.2612630  68.0558870
  63.2890480  49.1770650  68.0059110  62.1896950  49.9254340  68.7292660
  65.2277930  48.6406840  53.5550780  64.9419440  48.2271980  52.7404960
  65.0297480  49.5694550  53.4351300  56.8439480  43.3196920  67.9745620
  56.0785150  43.8881920  67.8900290  57.0255440  43.0273130  67.0813850
  63.9862830  45.0502250  68.5320640  64.7272300  45.3878010  68.0288100
  63.2235510  45.2194310  67.9790410  51.8224620  40.0555520  69.3360170
  51.8629960  39.7569390  70.2445400  52.6770120  40.4563130  69.1767690
  53.7630430  38.6347620  67.3034660  53.2326890  38.1438570  66.6758000
  54.4318500  39.0631820  66.7692590  62.6608490  43.1017080  67.0675850
  63.0749510  43.2562160  67.9166270  61.7259490  43.2272300  67.2301630
  63.1330660  40.4413240  69.0715000  63.7151430  39.6865560  68.9835480
  63.3092430  40.9720680  68.2946480  54.2502730  35.6009990  67.3831950
  54.1559600  34.9830740  66.6582820  53.6700120  36.3276280  67.1561860
  57.0164170  34.1583230  64.4159340  56.5681470  34.1807490  63.5704890
  56.3829370  33.7602250  65.0129640  57.4223720  43.0537560  65.0371780
  57.8411830  43.8970290  64.8648020  56.5032350  43.1909600  64.8078560
  59.7587620  40.7853740  66.4209620  59.8783830  40.1894880  67.1604460
  60.6181620  40.8223430  66.0010920  62.0975520  41.3390930  64.9972130
  61.5710740  41.8633550  64.3937270  62.4406860  41.9718320  65.6281860
  56.5256390  37.3275090  67.6785440  57.1156080  37.0190940  68.3663260
  55.7076630  36.8554840  67.8345340  61.3449820  36.9440900  67.9118460
  60.6565340  36.2822440  67.8468450  62.0655840  36.4979170  68.3566920
  58.1293350  50.5941780  66.4116160  58.0552050  51.4976920  66.7188530
  57.2272190  50.2753680  66.3838230  65.6573030  48.2903960  66.7408720
  65.0575020  48.3496520  65.9972640  65.7866930  47.3508940  66.8705570
  66.8974480  46.0321780  52.0778430  66.0667440  46.0998430  52.5485660
  67.0746310  46.9225900  51.7745290  66.3530940  42.7769260  54.5812630
  67.1149850  43.3465910  54.6872320  66.3685310  42.2096460  55.3520940
  67.3590910  43.6319360  59.4254560  67.7299740  42.8486680  59.0190530
  67.9992840  44.3208460  59.2471860  64.3424670  45.0155940  64.8384880
  63.5284510  45.4453100  65.1010670  64.7498870  45.6274350  64.2253930
  66.4050110  43.0703630  51.7385150  66.6798950  43.9782510  51.6104370
  66.2160850  43.0066160  52.6747140  66.3015450  41.0072620  56.7314580
  65.9259050  40.2400550  56.2995870  65.5718570  41.3895320  57.2189510
  65.6915070  40.1544140  66.3654100  65.4601160  39.9256890  65.4652050
  65.9519620  41.0743690  66.3198990  64.1303140  35.3800570  69.1433800
  65.0073320  35.3883970  69.5267800  64.1423980  34.6431410  68.5326150
  65.5766410  39.2330110  60.0321820  66.1003890  38.7392760  59.4011990
  66.1625830  39.3680470  60.7769390  65.7556130  39.3169980  63.5541370
  64.8058840  39.2833520  63.6686360  65.9369140  40.2270090  63.3191140
  65.0666380  38.4903460  55.9714230  65.5625500  38.2574330  56.7563110
  64.8682450  37.6515300  55.5551870  66.4953540  37.1264410  58.5051910
  66.3852820  36.9720450  59.4434180  67.2561130  36.5985350  58.2627320
  64.8419260  33.0658540  64.9634910  65.4791480  33.6792680  65.3294100
  64.9894150  33.1019200  64.0184140  67.3843810  34.9572330  51.7458050
  68.3093120  34.8253510  51.5376340  67.3619600  35.0365150  52.6994500
  67.4582300  35.7282990  54.3714760  66.6633800  35.6628110  54.9007670
  67.6625580  36.6633630  54.3600110  64.4000720  49.7674540  58.3653150
  64.9959790  49.4459110  57.6887570  64.6578870  49.2946360  59.1566420
  52.3063290  46.1992450  68.5143780  52.2632920  45.8285360  69.3958240
  52.4374300  47.1370020  68.6545600  58.2123740  34.2184730  67.8710010
  58.1512630  34.8106560  68.6205420  59.1524120  34.1110690  67.7260270
  60.8498300  33.8754790  67.5102300  61.4638710  34.1934080  66.8483380
  61.3947860  33.3903380  68.1298160  67.2673480  49.7746420  64.9164140
  66.7731760  50.1715290  64.1991270  66.6586770  49.1495630  65.3101420
  64.9512930  50.4169840  62.1950880  64.4915900  51.1685650  61.8208900
  64.3225390  49.6976310  62.1365680  65.7540800  33.6895110  58.8322410
  65.6929200  32.7456330  58.6853430  66.5332830  33.7975200  59.3775870
  61.7260360  32.4385970  59.5263600  62.3289730  33.0106180  60.0012120
  60.9853350  33.0025410  59.3037500  64.8694960  32.8407530  54.8003880
  65.0645590  33.7390980  55.0671310  64.0824830  32.6094610  55.2936830
  58.1876510  50.5382670  69.5636190  59.1143820  50.3026940  69.6072150
  58.1726940  51.3654670  69.0822220  66.4221570  50.0808240  56.5610440
  66.5973760  49.3945980  55.9171360  65.7243140  50.6055290  56.1687110
  55.3740120  33.2027420  69.3278070  55.0924390  33.7061020  68.5638890
  55.7559820  32.4049170  68.9620200  61.9755580  32.6181000  69.9058540
  61.8621030  32.9375610  70.8010060  62.7925320  33.0193510  69.6095820
  64.7554070  49.7652530  69.3877230  65.5479390  49.2701760  69.1803190
  65.0487220  50.4442670  69.9952840  53.6150940  36.2705690  37.8459080
  53.7217690  37.1709420  38.1527840  52.7043300  36.2223660  37.5553730
  63.2670050  35.3930500  39.3169980  64.0879670  34.9027070  39.3595460
  63.3004130  35.9828160  40.0701820  67.5569600  37.4097250  45.8813610
  66.8521770  37.7978960  45.3628720  67.8227520  38.1047540  46.4834540
  63.5031530  37.3330880  42.0897520  62.7987100  37.6215770  42.6700630
  63.8643690  38.1430990  41.7297080  65.1194310  46.9506010  44.3525000
  64.4357830  47.6205120  44.3441670  65.6588600  47.1486660  43.5869860
  66.5718450  36.7785670  42.4806730  65.6243360  36.8124650  42.6122160
  66.8968440  37.5924620  42.8656090  57.1037990  33.0782850  40.7762720
  57.4112970  32.5229740  40.0598220  56.1738690  33.2127310  40.5935710
  63.9498470  45.5166360  38.1560350  63.8394800  44.5740690  38.2809770
  63.9466720  45.8782000  39.0423110  59.4918750  41.1431680  37.5122840
  58.5648030  41.0769060  37.7411310  59.6443570  42.0811810  37.3978080
  59.4787830  37.4148680  34.5090000  58.5391500  37.5762640  34.5942460
  59.7971090  38.1334360  33.9625990  66.0000590  42.0967200  44.4869030
  65.1719220  42.1660290  44.0119160  66.5951070  42.6821510  44.0184860
  63.5216040  42.7051980  38.0158090  62.9028460  42.3671530  37.3684390
  63.5040490  42.0611740  38.7237280  62.9642600  38.8836520  45.4323900
  62.5513780  39.7090230  45.6863890  62.2318550  38.2981560  45.2400260
  61.6980740  41.9438790  35.0230840  62.1374020  41.1061220  34.8768660
  62.4109160  42.5768190  35.1094980  65.2797880  33.1981600  33.3371880
  64.9670540  33.2908430  34.2370950  66.0410350  33.7762630  33.2869310
  67.2341910  48.6907790  51.1896270  67.7101630  49.1690680  51.8685350
  67.8549070  48.6225280  50.4641770  66.6375160  45.8820640  48.3496280
  66.7638220  45.6432520  47.4313460  66.6796540  45.0505180  48.8218360
  62.4746300  49.8703980  36.3475090  62.3147440  49.5806920  37.2456920
  62.3093010  49.0944110  35.8120320  62.1772430  47.3791540  34.9073090
  61.4837590  47.3768830  34.2475370  62.9195290  46.9550860  34.4767260
  66.4899170  37.9353100  49.3146020  65.8743440  38.4432770  48.7861480
  66.1695590  37.0351430  49.2571960  54.2643680  33.9076470  41.1772890
  53.8211830  34.6886010  40.8457410  54.8228670  34.2306360  41.8843830
  63.5518000  37.9953940  47.9104870  62.7011590  37.6959690  48.2313940
  63.3919790  38.2395950  46.9988690  60.6467710  39.4955690  50.0103660
  60.9721120  38.6619440  49.6705890  61.4348040  40.0184210  50.1581990
  57.3802500  33.5287170  36.0578720  56.7556680  33.5247040  36.7832030
  57.2932620  32.6618130  35.6614690  61.2855660  39.0373410  37.5044790
  60.6864550  39.7609210  37.3208410  61.8335270  38.9750190  36.7221240
  59.8920530  37.6736950  39.5348070  60.2850100  37.9909150  38.7216760
  60.2537380  36.7948830  39.6492590  49.1154930  38.2057870  32.9680990
  49.0329600  39.1488630  33.1095980  48.7637990  38.0632780  32.0893340
  56.9153060  36.9396900  42.0351340  56.9189120  36.4986850  41.1855880
  57.8104180  37.2614230  42.1423160  56.9773210  37.9408980  35.0258100
  57.0986030  37.8995460  35.9743920  56.5921720  38.8033130  34.8704830
  60.9401580  35.7176380  43.0421790  60.9574320  36.1685030  43.8863640
  60.6917160  34.8182020  43.2555230  55.9894710  40.2510120  34.4241400
  55.4211610  39.8028370  33.7977310  56.6983710  40.6102900  33.8906550
  64.3672330  33.1308560  48.8808170  64.6918100  32.3998220  49.4066150
  64.4028840  32.8122200  47.9789160  64.2930170  43.2433670  42.4894200
  65.0129290  43.7388960  42.0990310  64.0911990  42.5651560  41.8448070
  59.7540110  34.6371630  36.6323590  58.9404720  34.1384800  36.5568900
  59.5602060  35.4769880  36.2159940  62.4688500  39.0091280  34.9285750
  63.3568120  39.3208510  34.7537090  62.4393590  38.1363530  34.5366330
  64.7402770  40.3203120  34.3965610  64.6566490  40.7517340  33.5462050
  65.4596960  40.7801470  34.8292430  65.8176910  42.7770640  47.4735580
  65.0925100  43.3699420  47.2764970  66.3452370  42.7694180  46.6748950
  65.7690020  47.1745380  37.1247740  65.1266180  46.5201000  37.3991460
  65.3820680  47.5800470  36.3488410  64.1587400  46.0661840  33.6624090
  63.9324980  45.3492280  34.2548730  63.7683600  45.8174280  32.8245840
  63.7403650  43.9833780  35.3238250  63.4525350  44.4446470  36.1116130
  64.5355820  43.5231550  35.5922470  61.1311480  36.8625610  45.6745870
  61.4992300  36.0420820  46.0025440  60.2709680  36.9227500  46.0901520
  64.4973510  35.8182550  36.4833430  63.8686670  35.9228220  35.7691660
  64.0025430  36.0379330  37.2727310  58.9431650  47.5388140  33.9167410
  59.0443630  47.3352130  32.9869390  58.0433390  47.2846420  34.1215190
  56.4657540  38.0968500  37.8991310  55.7573690  38.5654840  38.3404920
  56.7502020  37.4390510  38.5336500  60.4972970  34.8219160  39.3387100
  60.3740750  34.8405290  38.3896610  61.4457530  34.8698100  39.4585500
  54.6692560  36.4053580  35.2742020  55.5183090  36.8423730  35.2082210
  54.3023830  36.7173840  36.1014080  65.2980330  35.7333160  46.7412230
  64.7953930  36.4738560  47.0806040  66.1136990  36.1217160  46.4249020
  56.1747760  49.4136710  33.3570550  56.9676370  49.7025540  32.9052340
  55.6552110  48.9828880  32.6783030  65.2277930  48.6406840  34.7807290
  64.9419440  48.2271980  33.9661470  65.0297480  49.5694550  34.6607810
  56.6925160  44.6340120  33.2212900  56.5875800  44.0192470  33.9474280
  56.5249380  44.1106010  32.4375910  59.9327890  43.6960150  33.8254890
  59.3837990  44.1429450  34.4697630  60.5547150  43.1909400  34.3492560
  63.9862830  45.0502250  49.7577150  64.7272300  45.3878010  49.2544610
  63.2235510  45.2194310  49.2046920  58.1130650  41.6788680  32.9697290
  58.6336310  40.9637700  32.6038440  58.7599050  42.3174550  33.2697800
  63.1330660  40.4413240  50.2971510  63.7151430  39.6865560  50.2091990
  63.3092430  40.9720680  49.5202990  54.4961910  38.7284300  32.6678350
  54.2950970  37.8651660  33.0291690  54.3253960  38.6417660  31.7299950
  61.3449820  36.9440900  49.1374970  60.6565340  36.2822440  49.0724960
  62.0655840  36.4979170  49.5823430  61.9750220  33.5392530  35.1965230
  62.2552510  32.6960430  35.5524650  61.2015950  33.7715640  35.7103980
  53.2944710  35.8284920  32.6556230  53.5970610  35.8352350  31.7475380
  54.0339300  35.4782780  33.1523890  56.5129640  34.7719540  33.6412430
  56.1651640  34.0943530  33.0614880  56.7142410  34.3109050  34.4555820
  58.6778680  49.7600290  35.2599030  59.5729470  50.0985260  35.2817790
  58.7096310  49.0379700  34.6323310  52.3174840  45.1327340  33.4886030
  52.7549710  45.6757010  34.1443610  52.8022570  44.3074290  33.4982370
  65.6573030  48.2903960  47.9665230  65.0575020  48.3496520  47.2229150
  65.7866930  47.3508940  48.0962080  66.8974480  46.0321780  33.3034940
  66.0667440  46.0998430  33.7742170  67.0746310  46.9225900  33.0001800
  66.3530940  42.7769260  35.8069140  67.1149850  43.3465910  35.9128830
  66.3685310  42.2096460  36.5777450  67.3590910  43.6319360  40.6511070
  67.7299740  42.8486680  40.2447040  67.9992840  44.3208460  40.4728370
  64.3424670  45.0155940  46.0641390  63.5284510  45.4453100  46.3267180
  64.7498870  45.6274350  45.4510440  66.4050110  43.0703630  32.9641660
  66.6798950  43.9782510  32.8360880  66.2160850  43.0066160  33.9003650
  62.8025720  36.0948480  34.2595290  63.2210600  35.9079460  33.4191950
  62.4961780  35.2427530  34.5698220  66.3015450  41.0072620  37.9571090
  65.9259050  40.2400550  37.5252380  65.5718570  41.3895320  38.4446020
  65.6915070  40.1544140  47.5910610  65.4601160  39.9256890  46.6908560
  65.9519620  41.0743690  47.5455500  64.1303140  35.3800570  50.3690310
  65.0073320  35.3883970  50.7524310  64.1423980  34.6431410  49.7582660
  65.5766410  39.2330110  41.2578330  66.1003890  38.7392760  40.6268500
  66.1625830  39.3680470  42.0025900  65.7556130  39.3169980  44.7797880
  64.8058840  39.2833520  44.8942870  65.9369140  40.2270090  44.5447650
  51.6100570  37.5671660  33.8896510  52.3192270  37.1454880  33.4043790
  50.8940510  37.6346890  33.2579860  51.2574730  33.6210990  32.9299160
  51.9802860  34.1619930  33.2480380  51.5299250  33.3474410  32.0540700
  65.0666380  38.4903460  37.1970740  65.5625500  38.2574330  37.9819620
  64.8682450  37.6515300  36.7808380  66.4953540  37.1264410  39.7308420
  66.3852820  36.9720450  40.6690690  67.2561130  36.5985350  39.4883830
  64.8419260  33.0658540  46.1891420  65.4791480  33.6792680  46.5550610
  64.9894150  33.1019200  45.2440650  67.3843810  34.9572330  32.9714560
  68.3093120  34.8253510  32.7632850  67.3619600  35.0365150  33.9251010
  67.4582300  35.7282990  35.5971270  66.6633800  35.6628110  36.1264180
  67.6625580  36.6633630  35.5856620  67.2673480  49.7746420  46.1420650
  66.7731760  50.1715290  45.4247780  66.6586770  49.1495630  46.5357930
  61.5906340  32.4386930  45.0628100  60.7166180  32.7722040  44.8601030
  61.4817090  31.9660110  45.8879970  62.4978320  34.6457800  46.4469820
  62.1691680  33.8309560  46.0671550  63.4460620  34.6027610  46.3235510
  59.3381160  33.3556770  44.0021010  58.5552950  33.8302270  44.2817770
  59.0444090  32.4511600  43.8934190  63.8902230  34.0579870  42.0470100
  64.3310320  34.0024970  41.1991700  63.6209820  34.9737880  42.1180280
  65.7540800  33.6895110  40.0578920  65.6929200  32.7456330  39.9109940
  66.5332830  33.7975200  40.6032380  50.6821570  33.6604250  36.5234730
  51.4400930  33.7733130  35.9498760  50.2198740  34.4973450  36.4778160
  57.2235380  35.7743520  39.5137040  56.4109890  35.4000410  39.1732920
  57.7277020  35.0188600  39.8158230  61.7260360  32.4385970  40.7520110
  62.3289730  33.0106180  41.2268630  60.9853350  33.0025410  40.5294010
  64.8694960  32.8407530  36.0260390  65.0645590  33.7390980  36.2927820
  64.0824830  32.6094610  36.5193340  53.0546720  34.1868300  35.0636700
  53.5839480  33.3998100  34.9344650  53.6875040  34.8659490  35.2972230
  55.2484560  33.9243440  38.1182090  54.6187300  33.2230750  38.2852220
  54.7089700  34.6847570  37.9015250  64.7554070  49.7652530  50.6133740
  65.5479390  49.2701760  50.4059700  65.0487220  50.4442670  51.2209350
  60.8813730  40.6373470  21.4949790  60.8007780  39.7228080  21.2241500
  60.4678150  41.1340540  20.7889500  59.0131770  42.4152490  23.3759060
  58.2373870  41.9352930  23.6657630  59.6644700  41.7358140  23.2015220
  53.0297600  42.7272300  24.2534820  52.1982480  42.4721010  24.6531330
  53.6378580  42.7983070  24.9892740  63.0339200  46.8212680  22.1558190
  62.5720730  46.0499920  22.4845360  63.8464750  46.8478750  22.6610640
  53.0098860  46.7612390  24.4492840  53.3126900  45.8710130  24.2703060
  53.7542450  47.3182610  24.2215090  51.4389550  37.6874190  18.0377210
  50.5506250  38.0290160  17.9357090  51.7230740  37.4874510  17.1458040
  59.2602510  49.1070690  21.7762180  58.6413950  49.5628190  21.2056620
  60.1154290  49.2622150  21.3751880  58.4540760  45.0909680  23.3829220
  58.3849040  44.1499620  23.2218350  59.2160620  45.1811090  23.9551790
  50.6447430  35.6964200  25.7085840  50.4650270  34.7989950  25.9888600
  50.2427510  36.2436070  26.3832790  59.4845930  37.8980060  23.6098150
  59.8610750  37.0251940  23.4971820  59.3865440  38.2338760  22.7188590
  53.6150940  36.2705690  19.0715590  53.7217690  37.1709420  19.3784350
  52.7043300  36.2223660  18.7810240  63.2670050  35.3930500  20.5426490
  64.0879670  34.9027070  20.5851970  63.3004130  35.9828160  21.2958330
  51.2634100  38.1924700  24.3168180  51.9444210  38.4563070  24.9355580
  50.9482150  37.3525570  24.6506190  55.4558670  39.2392060  23.4040770
  55.9636890  39.7373030  24.0445790  55.9871910  38.4627260  23.2280130
  67.5569600  37.4097250  27.1070120  66.8521770  37.7978960  26.5885230
  67.8227520  38.1047540  27.7091050  53.7394770  33.8790620  27.6704190
  53.7413210  34.3963010  26.8650090  52.9099080  33.4020800  27.6474120
  60.1265860  43.9909930  19.1694090  59.5083130  44.4559380  18.6056810
  60.6389110  44.6837410  19.5863600  54.9897620  43.5185800  25.8477690
  54.6567000  44.1454720  26.4898760  55.1664300  44.0447680  25.0679360
  63.5031530  37.3330880  23.3154030  62.7987100  37.6215770  23.8957140
  63.8643690  38.1430990  22.9553590  53.4210100  35.5900580  25.6774640
  53.7626910  36.4342630  25.3828510  52.4825910  35.7384320  25.7939980
  54.2016720  45.4866600  27.6626870  54.8190720  46.1617680  27.3811320
  53.3409840  45.8954580  27.5714370  49.4949060  44.6766460  16.5433720
  49.1177040  45.1653560  15.8118620  49.7522130  45.3491740  17.1740250
  65.1194310  46.9506010  25.5781510  64.4357830  47.6205120  25.5698180
  65.6588600  47.1486660  24.8126370  66.5718450  36.7785670  23.7063240
  65.6243360  36.8124650  23.8378670  66.8968440  37.5924620  24.0912600
  57.1037990  33.0782850  22.0019230  57.4112970  32.5229740  21.2854730
  56.1738690  33.2127310  21.8192220  62.6553050  48.7950140  24.2926690
  62.6680210  48.3912430  23.4248950  62.1028270  49.5697430  24.1888120
  63.9498470  45.5166360  19.3816860  63.8394800  44.5740690  19.5066280
  63.9466720  45.8782000  20.2679620  62.0538490  43.6979980  25.6209300
  62.4707280  43.4840090  24.7862760  62.7778310  43.9552770  26.1917920
  59.4918750  41.1431680  18.7379350  58.5648030  41.0769060  18.9667820
  59.6443570  42.0811810  18.6234590  59.4787830  37.4148680  15.7346510
  58.5391500  37.5762640  15.8198970  59.7971090  38.1334360  15.1882500
  66.0000590  42.0967200  25.7125540  65.1719220  42.1660290  25.2375670
  66.5951070  42.6821510  25.2441370  63.5216040  42.7051980  19.2414600
  62.9028460  42.3671530  18.5940900  63.5040490  42.0611740  19.9493790
  62.9642600  38.8836520  26.6580410  62.5513780  39.7090230  26.9120400
  62.2318550  38.2981560  26.4656770  55.0975390  41.6696420  21.5199080
  54.6932390  40.9573670  21.0244980  55.1838510  41.3249660  22.4087120
  55.5657090  45.3563980  23.6838290  55.2685380  44.7509450  23.0046070
  56.5156910  45.3941290  23.5727650  53.8104010  38.4439630  25.2998120
  54.3618600  38.5534970  24.5251370  54.3247520  38.8177230  26.0153350
  63.6542700  48.9295850  27.3461390  63.1773260  49.7368040  27.1534000
  62.9704490  48.2774180  27.4987600  54.6575520  45.0945670  30.3346090
  53.7604050  45.3185640  30.5819490  54.6828390  45.2180610  29.3857490
  61.6980740  41.9438790  16.2487350  62.1374020  41.1061220  16.1025170
  62.4109160  42.5768190  16.3351490  53.4846740  41.9658990  28.9103460
  53.3454510  42.8381790  29.2790860  52.6028100  41.6231800  28.7651400
  59.8076120  46.8834860  20.2168590  60.2472030  47.6259190  19.8023980
  59.7463010  47.1261430  21.1407550  55.2827090  47.9080690  31.1188610
  55.2542520  48.3123640  30.2517040  55.1192060  46.9791050  30.9560210
  65.2797880  33.1981600  14.5628390  64.9670540  33.2908430  15.4627460
  66.0410350  33.7762630  14.5125820  67.2341910  48.6907790  32.4152780
  67.7101630  49.1690680  33.0941860  67.8549070  48.6225280  31.6898280
  49.4365390  43.7356540  24.8274370  49.5145810  43.8705310  23.8830090
  50.0507070  43.0272430  25.0202490  66.6375160  45.8820640  29.5752790
  66.7638220  45.6432520  28.6569970  66.6796540  45.0505180  30.0474870
  60.4991900  49.5848640  28.1447600  61.0136570  49.4956650  28.9470030
  59.6560980  49.9308340  28.4375510  62.4746300  49.8703980  17.5731600
  62.3147440  49.5806920  18.4713430  62.3093010  49.0944110  17.0376830
  54.9534680  49.6502510  19.3503220  54.7777160  48.7338050  19.1371020
  54.0990420  50.0089800  19.5901020  62.1772430  47.3791540  16.1329600
  61.4837590  47.3768830  15.4731880  62.9195290  46.9550860  15.7023770
  61.7422360  49.0054250  20.2078090  62.1979310  48.2243630  20.5216710
  62.0814880  49.7161070  20.7519270  66.4899170  37.9353100  30.5402530
  65.8743440  38.4432770  30.0117990  66.1695590  37.0351430  30.4828470
  49.4924910  44.7770710  27.3668830  49.6555950  44.3076070  26.5488200
  49.9577360  44.2694270  28.0317670  54.2643680  33.9076470  22.4029400
  53.8211830  34.6886010  22.0713920  54.8228670  34.2306360  23.1100340
  58.5513490  36.7744990  28.0064720  58.0892860  36.9828010  28.8184660
  58.1491600  35.9604340  27.7035390  63.5518000  37.9953940  29.1361380
  62.7011590  37.6959690  29.4570450  63.3919790  38.2395950  28.2245200
  60.6467710  39.4955690  31.2360170  60.9721120  38.6619440  30.8962400
  61.4348040  40.0184210  31.3838500  57.3802500  33.5287170  17.2835230
  56.7556680  33.5247040  18.0088540  57.2932620  32.6618130  16.8871200
  56.3019580  34.4523800  24.2619000  56.5991910  35.3586630  24.1811020
  56.8505140  33.9642580  23.6478570  54.0557900  39.0310040  20.1310650
  53.8298820  38.8147210  21.0357270  53.2750430  39.4638500  19.7856620
  61.2855660  39.0373410  18.7301300  60.6864550  39.7609210  18.5464920
  61.8335270  38.9750190  17.9477750  56.4957110  39.9295620  30.7970920
  56.4000710  38.9890350  30.6471320  57.3389090  40.1510690  30.4018990
  59.8920530  37.6736950  20.7604580  60.2850100  37.9909150  19.9473270
  60.2537380  36.7948830  20.8749100  51.6267650  36.3409290  28.9504700
  51.2331040  37.1884500  29.1577480  50.9386050  35.7035660  29.1413340
  58.2012700  36.4244260  32.0201440  57.5111020  36.2316460  32.6547530
  58.9445000  36.7078900  32.5525740  49.1154930  38.2057870  14.1937500
  49.0329600  39.1488630  14.3352490  48.7637990  38.0632780  13.3149850
  60.4775670  40.2642700  24.8555360  59.7456790  40.7729510  25.2045460
  60.0800010  39.4472680  24.5544140  56.9153060  36.9396900  23.2607850
  56.9189120  36.4986850  22.4112390  57.8104180  37.2614230  23.3679670
  52.7655440  36.8223390  22.2202060  52.4255490  37.2998620  22.9769110
  52.0032760  36.3688510  21.8603160  56.9773210  37.9408980  16.2514610
  57.0986030  37.8995460  17.2000430  56.5921720  38.8033130  16.0961340
  60.9401580  35.7176380  24.2678300  60.9574320  36.1685030  25.1120150
  60.6917160  34.8182020  24.4811740  55.9894710  40.2510120  15.6497910
  55.4211610  39.8028370  15.0233820  56.6983710  40.6102900  15.1163060
  64.3672330  33.1308560  30.1064680  64.6918100  32.3998220  30.6322660
  64.4028840  32.8122200  29.2045670  51.0663890  44.1522140  29.5264640
  50.6818680  43.5115810  30.1247600  51.3776080  44.8558260  30.0959370
  57.2161030  40.9998680  25.0073260  57.5831160  40.5257250  25.7534600
  57.0266090  41.8740250  25.3481600  50.0801520  35.7442370  21.1366730
  49.7948440  35.3798040  21.9745350  50.0180380  35.0122830  20.5229870
  55.0060400  40.0407320  27.3257470  54.7017470  40.9199300  27.5507830
  55.9606860  40.1007110  27.3614910  53.5342190  44.2468310  17.9224320
  52.7604450  43.7065930  17.7623040  54.2636820  43.7274920  17.5842080
  64.2930170  43.2433670  23.7150710  65.0129290  43.7388960  23.3246820
  64.0911990  42.5651560  23.0704580  59.7540110  34.6371630  17.8580100
  58.9404720  34.1384800  17.7825410  59.5602060  35.4769880  17.4416450
  59.6748970  43.3142730  29.6019710  59.6086280  42.3938400  29.3477300
  59.0454110  43.4118170  30.3164350  62.4688500  39.0091280  16.1542260
  63.3568120  39.3208510  15.9793600  62.4393590  38.1363530  15.7622840
  53.5779590  43.9148690  21.5603130  54.0958260  43.1116950  21.5060020
  53.1263610  43.8527830  22.4019960  58.4649090  45.1814970  16.8330430
  58.8064790  45.9257200  16.3373750  57.6361800  45.4946090  17.1955260
  51.0624130  40.8810060  28.4728830  50.7039070  41.5463910  29.0602170
  50.7678690  40.0493610  28.8441450  54.2637250  41.3394300  31.3568380
  53.9637390  41.4851480  30.4596200  55.0348490  40.7799590  31.2641770
  59.6065700  46.1363300  29.3523510  59.6210240  45.2044260  29.1342420
  58.8990800  46.2223060  29.9913280  64.7402770  40.3203120  15.6222120
  64.6566490  40.7517340  14.7718560  65.4596960  40.7801470  16.0548940
  65.8176910  42.7770640  28.6992090  65.0925100  43.3699420  28.5021480
  66.3452370  42.7694180  27.9005460  65.7690020  47.1745380  18.3504250
  65.1266180  46.5201000  18.6247970  65.3820680  47.5800470  17.5744920
  61.3476500  44.5030810  22.1975940  61.7000320  43.9058940  21.5377310
  60.4638830  44.1775040  22.3684190  57.4339780  45.2628500  19.6046350
  58.1210910  45.8097710  19.9853940  56.6472200  45.8069230  19.6395960
  49.5732180  40.8801320  15.0963430  50.4427030  41.1626120  15.3799350
  49.0822500  41.6937190  14.9812240  56.7366990  42.2674530  19.2171710
  57.1929770  43.0779780  19.4431900  56.3855200  41.9497670  20.0490200
  59.0399600  47.7780870  26.4464010  59.6841820  47.9840250  27.1237430
  59.4029040  47.0169270  25.9934860  52.6378770  32.6112180  19.6894230
  52.5093400  32.6030080  20.6379150  51.8140790  32.9495270  19.3385240
  60.3131680  45.7813220  25.1641460  60.9553910  45.0806380  25.2773630
  60.8381030  46.5611660  24.9838350  64.1587400  46.0661840  14.8880600
  63.9324980  45.3492280  15.4805240  63.7683600  45.8174280  14.0502350
  62.0869300  46.5808120  28.3677520  62.4225540  47.1674810  29.0455440
  61.1669640  46.4500830  28.5975310  49.9403430  50.0928700  15.6625060
  50.3001070  50.6918040  15.0082330  49.7995770  50.6388590  16.4360090
  49.6372700  34.3703300  29.1500930  48.9231220  34.5700220  29.7553540
  50.0567740  33.5942870  29.5215730  63.7403650  43.9833780  16.5494760
  63.4525350  44.4446470  17.3372640  64.5355820  43.5231550  16.8178980
  49.9245290  48.3583560  30.1367460  50.0336410  47.4178300  29.9962850
  49.2725850  48.6238310  29.4881190  57.9157880  46.6299450  31.5365580
  57.5954750  45.9108690  32.0811270  57.2416240  47.3054520  31.6101640
  55.9572050  47.4759900  16.4798730  55.9482150  48.2089590  15.8643240
  55.0370410  47.2291480  16.5725690  51.5578690  42.6974790  17.2245490
  50.9506640  43.4373690  17.2340790  52.0328040  42.7874150  16.3983690
  61.1311480  36.8625610  26.9002380  61.4992300  36.0420820  27.2281950
  60.2709680  36.9227500  27.3158030  64.4973510  35.8182550  17.7089940
  63.8686670  35.9228220  16.9948170  64.0025430  36.0379330  18.4983820
  58.9431650  47.5388140  15.1423920  59.0443630  47.3352130  14.2125900
  58.0433390  47.2846420  15.3471700  56.4657540  38.0968500  19.1247820
  55.7573690  38.5654840  19.5661430  56.7502020  37.4390510  19.7593010
  58.0913470  39.5165200  27.1240350  58.5898720  39.9911020  27.7892200
  58.2336420  38.5928720  27.3310380  60.4972970  34.8219160  20.5643610
  60.3740750  34.8405290  19.6153120  61.4457530  34.8698100  20.6842010
  57.5849760  50.0574460  19.8371590  57.8391260  50.0195850  18.9150960
  56.6362240  49.9307790  19.8299840  54.6692560  36.4053580  16.4998530
  55.5183090  36.8423730  16.4338720  54.3023830  36.7173840  17.3270590
  65.2980330  35.7333160  27.9668740  64.7953930  36.4738560  28.3062550
  66.1136990  36.1217160  27.6505530  63.5902340  40.9766340  21.4130100
  62.6492480  40.9916570  21.5877790  63.9046410  40.1902300  21.8590400
  53.5683980  42.6585940  14.9734060  54.3347250  42.5467300  15.5359490
  53.6458670  41.9623910  14.3210830  52.2630740  40.0911010  15.6566950
  52.3434330  39.1438520  15.7684350  53.1550490  40.4217890  15.7627610
  65.5927920  48.1475190  23.0884360  65.7175340  48.9706360  23.5608170
  66.4593480  47.9365920  22.7408510  53.0645450  50.2406400  22.7601490
  53.8007930  49.6921860  23.0310060  53.4486370  51.1062410  22.6207480
  52.0703730  49.4252470  31.9487070  52.8716460  49.7464520  32.3622470
  51.5555550  49.0648050  32.6706980  56.1747760  49.4136710  14.5827060
  56.9676370  49.7025540  14.1308850  55.6552110  48.9828880  13.9039540
  60.9068360  45.5332340  31.8962480  60.3006520  45.5563940  31.1558230
  60.6022470  44.8015380  32.4329730  62.3368730  49.2612630  30.5071890
  63.2890480  49.1770650  30.4572130  62.1896950  49.9254340  31.1805680
  65.2277930  48.6406840  16.0063800  64.9419440  48.2271980  15.1917980
  65.0297480  49.5694550  15.8864320  49.7901540  41.9125930  30.8923120
  50.2940560  41.3333210  31.4639350  49.0508960  42.1966160  31.4299490
  56.6925160  44.6340120  14.4469410  56.5875800  44.0192470  15.1730790
  56.5249380  44.1106010  13.6632420  56.8439480  43.3196920  30.4258640
  56.0785150  43.8881920  30.3413310  57.0255440  43.0273130  29.5326870
  59.9327890  43.6960150  15.0511400  59.3837990  44.1429450  15.6954140
  60.5547150  43.1909400  15.5749070  63.9862830  45.0502250  30.9833660
  64.7272300  45.3878010  30.4801120  63.2235510  45.2194310  30.4303430
  51.8224620  40.0555520  31.7873190  51.8629960  39.7569390  32.6958420
  52.6770120  40.4563130  31.6280710  55.6003010  42.6551070  16.9476700
  56.0219430  42.4890940  17.7908090  55.7253850  41.8451300  16.4531840
  53.7630430  38.6347620  29.7547680  53.2326890  38.1438570  29.1271020
  54.4318500  39.0631820  29.2205610  58.1130650  41.6788680  14.1953800
  58.6336310  40.9637700  13.8294950  58.7599050  42.3174550  14.4954310
  62.6608490  43.1017080  29.5188870  63.0749510  43.2562160  30.3679290
  61.7259490  43.2272300  29.6814650  63.1330660  40.4413240  31.5228020
  63.7151430  39.6865560  31.4348500  63.3092430  40.9720680  30.7459500
  54.2502730  35.6009990  29.8344970  54.1559600  34.9830740  29.1095840
  53.6700120  36.3276280  29.6074880  57.0164170  34.1583230  26.8672360
  56.5681470  34.1807490  26.0217910  56.3829370  33.7602250  27.4642660
  57.4223720  43.0537560  27.4884800  57.8411830  43.8970290  27.3161040
  56.5032350  43.1909600  27.2591580  59.7587620  40.7853740  28.8722640
  59.8783830  40.1894880  29.6117480  60.6181620  40.8223430  28.4523940
  62.0975520  41.3390930  27.4485150  61.5710740  41.8633550  26.8450290
  62.4406860  41.9718320  28.0794880  54.4961910  38.7284300  13.8934860
  54.2950970  37.8651660  14.2548200  54.3253960  38.6417660  12.9556460
  55.2731140  49.3590570  28.6042530  54.7352230  50.0836630  28.2851230
  55.5265100  48.8820910  27.8139870  56.5256390  37.3275090  30.1298460
  57.1156080  37.0190940  30.8176280  55.7076630  36.8554840  30.2858360
  61.3449820  36.9440900  30.3631480  60.6565340  36.2822440  30.2981470
  62.0655840  36.4979170  30.8079940  61.9750220  33.5392530  16.4221740
  62.2552510  32.6960430  16.7781160  61.2015950  33.7715640  16.9360490
  53.2944710  35.8284920  13.8812740  53.5970610  35.8352350  12.9731890
  54.0339300  35.4782780  14.3780400  58.1293350  50.5941780  28.8629180
  58.0552050  51.4976920  29.1701550  57.2272190  50.2753680  28.8351250
  56.5129640  34.7719540  14.8668940  56.1651640  34.0943530  14.2871390
  56.7142410  34.3109050  15.6812330  58.6778680  49.7600290  16.4855540
  59.5729470  50.0985260  16.5074300  58.7096310  49.0379700  15.8579820
  52.3174840  45.1327340  14.7142540  52.7549710  45.6757010  15.3700120
  52.8022570  44.3074290  14.7238880  49.5320640  47.9216370  22.1662800
  49.8623650  47.0537430  21.9341440  49.9611640  48.1274890  22.9967760
  54.1282560  46.2525380  19.8264770  53.8278100  46.1290350  20.7268680
  54.0220050  45.3933970  19.4180500  50.0210850  48.7886960  24.9044430
  49.5841840  48.9687760  25.7368580  50.5888530  49.5461580  24.7626150
  65.6573030  48.2903960  29.1921740  65.0575020  48.3496520  28.4485660
  65.7866930  47.3508940  29.3218590  66.8974480  46.0321780  14.5291450
  66.0667440  46.0998430  14.9998680  67.0746310  46.9225900  14.2258310
  66.3530940  42.7769260  17.0325650  67.1149850  43.3465910  17.1385340
  66.3685310  42.2096460  17.8033960  67.3590910  43.6319360  21.8767580
  67.7299740  42.8486680  21.4703550  67.9992840  44.3208460  21.6984880
  64.3424670  45.0155940  27.2897900  63.5284510  45.4453100  27.5523690
  64.7498870  45.6274350  26.6766950  66.4050110  43.0703630  14.1898170
  66.6798950  43.9782510  14.0617390  66.2160850  43.0066160  15.1260160
  62.8025720  36.0948480  15.4851800  63.2210600  35.9079460  14.6448460
  62.4961780  35.2427530  15.7954730  66.3015450  41.0072620  19.1827600
  65.9259050  40.2400550  18.7508890  65.5718570  41.3895320  19.6702530
  50.8911210  41.6859760  25.8036650  51.2584250  41.5987160  26.6832670
  50.3222030  40.9226310  25.7043510  65.6915070  40.1544140  28.8167120
  65.4601160  39.9256890  27.9165070  65.9519620  41.0743690  28.7712010
  50.4427210  38.5968850  29.7095070  49.5483260  38.5635610  30.0488780
  50.9824760  38.7955640  30.4746320  64.1303140  35.3800570  31.5946820
  65.0073320  35.3883970  31.9780820  64.1423980  34.6431410  30.9839170
  49.0673360  38.5106120  17.2058640  48.1637440  38.7736320  17.0310300
  49.5513980  38.7817290  16.4258600  65.5766410  39.2330110  22.4834840
  66.1003890  38.7392760  21.8525010  66.1625830  39.3680470  23.2282410
  65.7556130  39.3169980  26.0054390  64.8058840  39.2833520  26.1199380
  65.9369140  40.2270090  25.7704160  51.6100570  37.5671660  15.1153020
  52.3192270  37.1454880  14.6300300  50.8940510  37.6346890  14.4836370
  51.2574730  33.6210990  14.1555670  51.9802860  34.1619930  14.4736890
  51.5299250  33.3474410  13.2797210  65.0666380  38.4903460  18.4227250
  65.5625500  38.2574330  19.2076130  64.8682450  37.6515300  18.0064890
  50.9466920  32.8717180  24.0578290  51.5943110  32.3214560  23.6173450
  51.3668760  33.1260330  24.8794100  66.4953540  37.1264410  20.9564930
  66.3852820  36.9720450  21.8947200  67.2561130  36.5985350  20.7140340
  64.8419260  33.0658540  27.4147930  65.4791480  33.6792680  27.7807120
  64.9894150  33.1019200  26.4697160  67.3843810  34.9572330  14.1971070
  68.3093120  34.8253510  13.9889360  67.3619600  35.0365150  15.1507520
  67.4582300  35.7282990  16.8227780  66.6633800  35.6628110  17.3520690
  67.6625580  36.6633630  16.8113130  64.4000720  49.7674540  20.8166170
  64.9959790  49.4459110  20.1400590  64.6578870  49.2946360  21.6079440
  50.6998920  33.0272850  26.8003610  50.3513740  33.4836670  27.5661790
  50.3686620  32.1329980  26.8826040  52.3063290  46.1992450  30.9656800
  52.2632920  45.8285360  31.8471260  52.4374300  47.1370020  31.1058620
  56.0069320  47.7552040  26.5666520  55.7660680  48.0226600  25.6797040
  56.9471960  47.9257770  26.6217380  58.2123740  34.2184730  30.3223030
  58.1512630  34.8106560  31.0718440  59.1524120  34.1110690  30.1773290
  60.8498300  33.8754790  29.9615320  61.4638710  34.1934080  29.2996400
  61.3947860  33.3903380  30.5811180  67.2673480  49.7746420  27.3677160
  66.7731760  50.1715290  26.6504290  66.6586770  49.1495630  27.7614440
  51.3719560  32.5549050  30.0754380  51.9202550  32.3737100  29.3120490
  51.4374870  31.7643160  30.6110690  52.1451320  49.1454700  28.0854580
  51.5511640  49.0139400  28.8244620  52.1375160  48.3092840  27.6196680
  61.5906340  32.4386930  26.2884610  60.7166180  32.7722040  26.0857540
  61.4817090  31.9660110  27.1136480  62.4978320  34.6457800  27.6726330
  62.1691680  33.8309560  27.2928060  63.4460620  34.6027610  27.5492020
  64.9512930  50.4169840  24.6463900  64.4915900  51.1685650  24.2721920
  64.3225390  49.6976310  24.5878700  51.7763550  46.5113080  27.0362620
  51.0497610  45.8918370  26.9688570  51.8372700  46.9053690  26.1660700
  55.3808650  48.7258080  23.8212030  55.8973670  48.1145440  23.2960290
  56.0306030  49.2286860  24.3123040  58.1204150  49.6166570  24.6481010
  58.4081960  49.3620870  23.7714020  58.6327370  49.0643930  25.2386580
  59.3381160  33.3556770  25.2277520  58.5552950  33.8302270  25.5074280
  59.0444090  32.4511600  25.1190700  63.8902230  34.0579870  23.2726610
  64.3310320  34.0024970  22.4248210  63.6209820  34.9737880  23.3436790
  65.7540800  33.6895110  21.2835430  65.6929200  32.7456330  21.1366450
  66.5332830  33.7975200  21.8288890  50.0593550  49.8287470  20.2459380
  49.8915590  49.1958150  20.9441270  49.1928060  50.0346870  19.8953570
  50.6821570  33.6604250  17.7491240  51.4400930  33.7733130  17.1755270
  50.2198740  34.4973450  17.7034670  57.2235380  35.7743520  20.7393550
  56.4109890  35.4000410  20.3989430  57.7277020  35.0188600  21.0414740
  61.7260360  32.4385970  21.9776620  62.3289730  33.0106180  22.4525140
  60.9853350  33.0025410  21.7550520  64.8694960  32.8407530  17.2516900
  65.0645590  33.7390980  17.5184330  64.0824830  32.6094610  17.7449850
  51.6656250  48.5220700  17.6909520  51.1403870  48.9028730  16.9871480
  51.5900830  49.1471470  18.4119230  53.0546720  34.1868300  16.2893210
  53.5839480  33.3998100  16.1601160  53.6875040  34.8659490  16.5228740
  55.2484560  33.9243440  19.3438600  54.6187300  33.2230750  19.5108730
  54.7089700  34.6847570  19.1271760  58.1876510  50.5382670  32.0149210
  59.1143820  50.3026940  32.0585170  58.1726940  51.3654670  31.5335240
  66.4221570  50.0808240  19.0123460  66.5973760  49.3945980  18.3684380
  65.7243140  50.6055290  18.6200130  55.3740120  33.2027420  31.7791090
  55.0924390  33.7061020  31.0151910  55.7559820  32.4049170  31.4133220
  54.2649220  50.4703080  16.5658770  54.9968040  50.1862360  16.0182660
  54.5242890  50.2316360  17.4558150  53.4264010  46.5867810  16.5705100
  52.7972890  47.0552910  17.1190930  53.5411840  45.7417030  17.0051290
  61.9755580  32.6181000  32.3571560  61.8621030  32.9375610  33.2523080
  62.7925320  33.0193510  32.0608840  64.7554070  49.7652530  31.8390250
  65.5479390  49.2701760  31.6316210  65.0487220  50.4442670  32.4465860
  60.8813730  40.6373470   2.7206300  60.8007780  39.7228080   2.4498010
  60.4678150  41.1340540   2.0146010  59.0131770  42.4152490   4.6015570
  58.2373870  41.9352930   4.8914140  59.6644700  41.7358140   4.4271730
  53.0297600  42.7272300   5.4791330  52.1982480  42.4721010   5.8787840
  53.6378580  42.7983070   6.2149250  63.0339200  46.8212680   3.3814700
  62.5720730  46.0499920   3.7101870  63.8464750  46.8478750   3.8867150
  53.0098860  46.7612390   5.6749350  53.3126900  45.8710130   5.4959570
  53.7542450  47.3182610   5.4471600  49.4022560  40.2879840   5.1473420
  49.9738670  39.5202040   5.1477060  49.4024100  40.5868600   4.2380030
  59.2602510  49.1070690   3.0018690  58.6413950  49.5628190   2.4313130
  60.1154290  49.2622150   2.6008390  58.4540760  45.0909680   4.6085730
  58.3849040  44.1499620   4.4474860  59.2160620  45.1811090   5.1808300
  50.6447430  35.6964200   6.9342350  50.4650270  34.7989950   7.2145110
  50.2427510  36.2436070   7.6089300  59.4845930  37.8980060   4.8354660
  59.8610750  37.0251940   4.7228330  59.3865440  38.2338760   3.9445100
  63.2670050  35.3930500   1.7683000  64.0879670  34.9027070   1.8108480
  63.3004130  35.9828160   2.5214840  51.2634100  38.1924700   5.5424690
  51.9444210  38.4563070   6.1612090  50.9482150  37.3525570   5.8762700
  55.4558670  39.2392060   4.6297280  55.9636890  39.7373030   5.2702300
  55.9871910  38.4627260   4.4536640  67.5569600  37.4097250   8.3326630
  66.8521770  37.7978960   7.8141740  67.8227520  38.1047540   8.9347560
  53.7394770  33.8790620   8.8960700  53.7413210  34.3963010   8.0906600
  52.9099080  33.4020800   8.8730630  54.9897620  43.5185800   7.0734200
  54.6567000  44.1454720   7.7155270  55.1664300  44.0447680   6.2935870
  63.5031530  37.3330880   4.5410540  62.7987100  37.6215770   5.1213650
  63.8643690  38.1430990   4.1810100  53.4210100  35.5900580   6.9031150
  53.7626910  36.4342630   6.6085020  52.4825910  35.7384320   7.0196490
  54.2016720  45.4866600   8.8883380  54.8190720  46.1617680   8.6067830
  53.3409840  45.8954580   8.7970880  65.1194310  46.9506010   6.8038020
  64.4357830  47.6205120   6.7954690  65.6588600  47.1486660   6.0382880
  66.5718450  36.7785670   4.9319750  65.6243360  36.8124650   5.0635180
  66.8968440  37.5924620   5.3169110  57.1037990  33.0782850   3.2275740
  57.4112970  32.5229740   2.5111240  56.1738690  33.2127310   3.0448730
  62.6553050  48.7950140   5.5183200  62.6680210  48.3912430   4.6505460
  62.1028270  49.5697430   5.4144630  62.0538490  43.6979980   6.8465810
  62.4707280  43.4840090   6.0119270  62.7778310  43.9552770   7.4174430
  66.0000590  42.0967200   6.9382050  65.1719220  42.1660290   6.4632180
  66.5951070  42.6821510   6.4697880  62.9642600  38.8836520   7.8836920
  62.5513780  39.7090230   8.1376910  62.2318550  38.2981560   7.6913280
  55.0975390  41.6696420   2.7455590  54.6932390  40.9573670   2.2501490
  55.1838510  41.3249660   3.6343630  55.5657090  45.3563980   4.9094800
  55.2685380  44.7509450   4.2302580  56.5156910  45.3941290   4.7984160
  53.8104010  38.4439630   6.5254630  54.3618600  38.5534970   5.7507880
  54.3247520  38.8177230   7.2409860  63.6542700  48.9295850   8.5717900
  63.1773260  49.7368040   8.3790510  62.9704490  48.2774180   8.7244110
  54.6575520  45.0945670  11.5602600  53.7604050  45.3185640  11.8076000
  54.6828390  45.2180610  10.6114000  53.4846740  41.9658990  10.1359970
  53.3454510  42.8381790  10.5047370  52.6028100  41.6231800   9.9907910
  55.2827090  47.9080690  12.3445120  55.2542520  48.3123640  11.4773550
  55.1192060  46.9791050  12.1816720  67.2341910  48.6907790  13.6409290
  67.7101630  49.1690680  14.3198370  67.8549070  48.6225280  12.9154790
  49.4365390  43.7356540   6.0530880  49.5145810  43.8705310   5.1086600
  50.0507070  43.0272430   6.2459000  66.6375160  45.8820640  10.8009300
  66.7638220  45.6432520   9.8826480  66.6796540  45.0505180  11.2731380
  60.4991900  49.5848640   9.3704110  61.0136570  49.4956650  10.1726540
  59.6560980  49.9308340   9.6632020  66.4899170  37.9353100  11.7659040
  65.8743440  38.4432770  11.2374500  66.1695590  37.0351430  11.7084980
  49.4924910  44.7770710   8.5925340  49.6555950  44.3076070   7.7744710
  49.9577360  44.2694270   9.2574180  54.2643680  33.9076470   3.6285910
  53.8211830  34.6886010   3.2970430  54.8228670  34.2306360   4.3356850
  58.5513490  36.7744990   9.2321230  58.0892860  36.9828010  10.0441170
  58.1491600  35.9604340   8.9291900  63.5518000  37.9953940  10.3617890
  62.7011590  37.6959690  10.6826960  63.3919790  38.2395950   9.4501710
  60.6467710  39.4955690  12.4616680  60.9721120  38.6619440  12.1218910
  61.4348040  40.0184210  12.6095010  56.3019580  34.4523800   5.4875510
  56.5991910  35.3586630   5.4067530  56.8505140  33.9642580   4.8735080
  56.4957110  39.9295620  12.0227430  56.4000710  38.9890350  11.8727830
  57.3389090  40.1510690  11.6275500  51.6267650  36.3409290  10.1761210
  51.2331040  37.1884500  10.3833990  50.9386050  35.7035660  10.3669850
  58.2012700  36.4244260  13.2457950  57.5111020  36.2316460  13.8804040
  58.9445000  36.7078900  13.7782250  48.9284700  34.2637750   4.2091290
  48.6397750  34.8340610   4.9216270  49.6730460  33.7842200   4.5722520
  60.4775670  40.2642700   6.0811870  59.7456790  40.7729510   6.4301970
  60.0800010  39.4472680   5.7800650  56.9153060  36.9396900   4.4864360
  56.9189120  36.4986850   3.6368900  57.8104180  37.2614230   4.5936180
  52.7655440  36.8223390   3.4458570  52.4255490  37.2998620   4.2025620
  52.0032760  36.3688510   3.0859670  60.9401580  35.7176380   5.4934810
  60.9574320  36.1685030   6.3376660  60.6917160  34.8182020   5.7068250
  64.3672330  33.1308560  11.3321190  64.6918100  32.3998220  11.8579170
  64.4028840  32.8122200  10.4302180  51.0663890  44.1522140  10.7521150
  50.6818680  43.5115810  11.3504110  51.3776080  44.8558260  11.3215880
  57.2161030  40.9998680   6.2329770  57.5831160  40.5257250   6.9791110
  57.0266090  41.8740250   6.5738110  50.0801520  35.7442370   2.3623240
  49.7948440  35.3798040   3.2001860  50.0180380  35.0122830   1.7486380
  55.0060400  40.0407320   8.5513980  54.7017470  40.9199300   8.7764340
  55.9606860  40.1007110   8.5871420  64.2930170  43.2433670   4.9407220
  65.0129290  43.7388960   4.5503330  64.0911990  42.5651560   4.2961090
  59.6748970  43.3142730  10.8276220  59.6086280  42.3938400  10.5733810
  59.0454110  43.4118170  11.5420860  53.5779590  43.9148690   2.7859640
  54.0958260  43.1116950   2.7316530  53.1263610  43.8527830   3.6276470
  51.0624130  40.8810060   9.6985340  50.7039070  41.5463910  10.2858680
  50.7678690  40.0493610  10.0697960  54.2637250  41.3394300  12.5824890
  53.9637390  41.4851480  11.6852710  55.0348490  40.7799590  12.4898280
  59.6065700  46.1363300  10.5780020  59.6210240  45.2044260  10.3598930
  58.8990800  46.2223060  11.2169790  65.8176910  42.7770640   9.9248600
  65.0925100  43.3699420   9.7277990  66.3452370  42.7694180   9.1261970
  61.3476500  44.5030810   3.4232450  61.7000320  43.9058940   2.7633820
  60.4638830  44.1775040   3.5940700  59.0399600  47.7780870   7.6720520
  59.6841820  47.9840250   8.3493940  59.4029040  47.0169270   7.2191370
  60.3131680  45.7813220   6.3897970  60.9553910  45.0806380   6.5030140
  60.8381030  46.5611660   6.2094860  62.0869300  46.5808120   9.5934030
  62.4225540  47.1674810  10.2711950  61.1669640  46.4500830   9.8231820
  49.6372700  34.3703300  10.3757440  48.9231220  34.5700220  10.9810050
  50.0567740  33.5942870  10.7472240  49.9245290  48.3583560  11.3623970
  50.0336410  47.4178300  11.2219360  49.2725850  48.6238310  10.7137700
  57.9157880  46.6299450  12.7622090  57.5954750  45.9108690  13.3067780
  57.2416240  47.3054520  12.8358150  61.1311480  36.8625610   8.1258890
  61.4992300  36.0420820   8.4538460  60.2709680  36.9227500   8.5414540
  58.0913470  39.5165200   8.3496860  58.5898720  39.9911020   9.0148710
  58.2336420  38.5928720   8.5566890  65.2980330  35.7333160   9.1925250
  64.7953930  36.4738560   9.5319060  66.1136990  36.1217160   8.8762040
  63.5902340  40.9766340   2.6386610  62.6492480  40.9916570   2.8134300
  63.9046410  40.1902300   3.0846910  65.5927920  48.1475190   4.3140870
  65.7175340  48.9706360   4.7864680  66.4593480  47.9365920   3.9665020
  53.0645450  50.2406400   3.9858000  53.8007930  49.6921860   4.2566570
  53.4486370  51.1062410   3.8463990  52.0703730  49.4252470  13.1743580
  52.8716460  49.7464520  13.5878980  51.5555550  49.0648050  13.8963490
  60.9068360  45.5332340  13.1218990  60.3006520  45.5563940  12.3814740
  60.6022470  44.8015380  13.6586240  62.3368730  49.2612630  11.7328400
  63.2890480  49.1770650  11.6828640  62.1896950  49.9254340  12.4062190
  49.7901540  41.9125930  12.1179630  50.2940560  41.3333210  12.6895860
  49.0508960  42.1966160  12.6556000  56.8439480  43.3196920  11.6515150
  56.0785150  43.8881920  11.5669820  57.0255440  43.0273130  10.7583380
  63.9862830  45.0502250  12.2090170  64.7272300  45.3878010  11.7057630
  63.2235510  45.2194310  11.6559940  51.8224620  40.0555520  13.0129700
  51.8629960  39.7569390  13.9214930  52.6770120  40.4563130  12.8537220
  53.7630430  38.6347620  10.9804190  53.2326890  38.1438570  10.3527530
  54.4318500  39.0631820  10.4462120  62.6608490  43.1017080  10.7445380
  63.0749510  43.2562160  11.5935800  61.7259490  43.2272300  10.9071160
  63.1330660  40.4413240  12.7484530  63.7151430  39.6865560  12.6605010
  63.3092430  40.9720680  11.9716010  54.2502730  35.6009990  11.0601480
  54.1559600  34.9830740  10.3352350  53.6700120  36.3276280  10.8331390
  57.0164170  34.1583230   8.0928870  56.5681470  34.1807490   7.2474420
  56.3829370  33.7602250   8.6899170  57.4223720  43.0537560   8.7141310
  57.8411830  43.8970290   8.5417550  56.5032350  43.1909600   8.4848090
  59.7587620  40.7853740  10.0979150  59.8783830  40.1894880  10.8373990
  60.6181620  40.8223430   9.6780450  62.0975520  41.3390930   8.6741660
  61.5710740  41.8633550   8.0706800  62.4406860  41.9718320   9.3051390
  55.2731140  49.3590570   9.8299040  54.7352230  50.0836630   9.5107740
  55.5265100  48.8820910   9.0396380  56.5256390  37.3275090  11.3554970
  57.1156080  37.0190940  12.0432790  55.7076630  36.8554840  11.5114870
  61.3449820  36.9440900  11.5887990  60.6565340  36.2822440  11.5237980
  62.0655840  36.4979170  12.0336450  58.1293350  50.5941780  10.0885690
  58.0552050  51.4976920  10.3958060  57.2272190  50.2753680  10.0607760
  49.5320640  47.9216370   3.3919310  49.8623650  47.0537430   3.1597950
  49.9611640  48.1274890   4.2224270  50.0210850  48.7886960   6.1300940
  49.5841840  48.9687760   6.9625090  50.5888530  49.5461580   5.9882660
  65.6573030  48.2903960  10.4178250  65.0575020  48.3496520   9.6742170
  65.7866930  47.3508940  10.5475100  49.8535280  41.3007190   2.4889820
  49.1984120  41.0318830   1.8449520  50.6913230  41.1911670   2.0391800
  67.3590910  43.6319360   3.1024090  67.7299740  42.8486680   2.6960060
  67.9992840  44.3208460   2.9241390  64.3424670  45.0155940   8.5154410
  63.5284510  45.4453100   8.7780200  64.7498870  45.6274350   7.9023460
  50.8911210  41.6859760   7.0293160  51.2584250  41.5987160   7.9089180
  50.3222030  40.9226310   6.9300020  65.6915070  40.1544140  10.0423630
  65.4601160  39.9256890   9.1421580  65.9519620  41.0743690   9.9968520
  50.4427210  38.5968850  10.9351580  49.5483260  38.5635610  11.2745290
  50.9824760  38.7955640  11.7002830  64.1303140  35.3800570  12.8203330
  65.0073320  35.3883970  13.2037330  64.1423980  34.6431410  12.2095680
  65.5766410  39.2330110   3.7091350  66.1003890  38.7392760   3.0781520
  66.1625830  39.3680470   4.4538920  65.7556130  39.3169980   7.2310900
  64.8058840  39.2833520   7.3455890  65.9369140  40.2270090   6.9960670
  50.9466920  32.8717180   5.2834800  51.5943110  32.3214560   4.8429960
  51.3668760  33.1260330   6.1050610  66.4953540  37.1264410   2.1821440
  66.3852820  36.9720450   3.1203710  67.2561130  36.5985350   1.9396850
  64.8419260  33.0658540   8.6404440  65.4791480  33.6792680   9.0063630
  64.9894150  33.1019200   7.6953670  50.6998920  33.0272850   8.0260120
  50.3513740  33.4836670   8.7918300  50.3686620  32.1329980   8.1082550
  52.3063290  46.1992450  12.1913310  52.2632920  45.8285360  13.0727770
  52.4374300  47.1370020  12.3315130  56.0069320  47.7552040   7.7923030
  55.7660680  48.0226600   6.9053550  56.9471960  47.9257770   7.8473890
  58.2123740  34.2184730  11.5479540  58.1512630  34.8106560  12.2974950
  59.1524120  34.1110690  11.4029800  60.8498300  33.8754790  11.1871830
  61.4638710  34.1934080  10.5252910  61.3947860  33.3903380  11.8067690
  67.2673480  49.7746420   8.5933670  66.7731760  50.1715290   7.8760800
  66.6586770  49.1495630   8.9870950  51.3719560  32.5549050  11.3010890
  51.9202550  32.3737100  10.5377000  51.4374870  31.7643160  11.8367200
  52.1451320  49.1454700   9.3111090  51.5511640  49.0139400  10.0501130
  52.1375160  48.3092840   8.8453190  61.5906340  32.4386930   7.5141120
  60.7166180  32.7722040   7.3114050  61.4817090  31.9660110   8.3392990
  62.4978320  34.6457800   8.8982840  62.1691680  33.8309560   8.5184570
  63.4460620  34.6027610   8.7748530  64.9512930  50.4169840   5.8720410
  64.4915900  51.1685650   5.4978430  64.3225390  49.6976310   5.8135210
  51.7763550  46.5113080   8.2619130  51.0497610  45.8918370   8.1945080
  51.8372700  46.9053690   7.3917210  55.3808650  48.7258080   5.0468540
  55.8973670  48.1145440   4.5216800  56.0306030  49.2286860   5.5379550
  58.1204150  49.6166570   5.8737520  58.4081960  49.3620870   4.9970530
  58.6327370  49.0643930   6.4643090  59.3381160  33.3556770   6.4534030
  58.5552950  33.8302270   6.7330790  59.0444090  32.4511600   6.3447210
  63.8902230  34.0579870   4.4983120  64.3310320  34.0024970   3.6504720
  63.6209820  34.9737880   4.5693300  65.7540800  33.6895110   2.5091940
  65.6929200  32.7456330   2.3622960  66.5332830  33.7975200   3.0545400
  61.7260360  32.4385970   3.2033130  62.3289730  33.0106180   3.6781650
  60.9853350  33.0025410   2.9807030  58.1876510  50.5382670  13.2405720
  59.1143820  50.3026940  13.2841680  58.1726940  51.3654670  12.7591750
  55.3740120  33.2027420  13.0047600  55.0924390  33.7061020  12.2408420
  55.7559820  32.4049170  12.6389730  61.9755580  32.6181000  13.5828070
  61.8621030  32.9375610  14.4779590  62.7925320  33.0193510  13.2865350
  64.7554070  49.7652530  13.0646760  65.5479390  49.2701760  12.8572720
  65.0487220  50.4442670  13.6722370  60.8813730  21.8629980  77.8180260
  60.8007780  20.9484590  77.5471970  60.4678150  22.3597050  77.1119970
  59.0131770  23.6409000  79.6989530  58.2373870  23.1609440  79.9888100
  59.6644700  22.9614650  79.5245690  53.0297600  23.9528810  80.5765290
  52.1982480  23.6977520  80.9761800  53.6378580  24.0239580  81.3123210
  63.0339200  28.0469190  78.4788660  62.5720730  27.2756430  78.8075830
  63.8464750  28.0735260  78.9841110  53.0098860  27.9868900  80.7723310
  53.3126900  27.0966640  80.5933530  53.7542450  28.5439120  80.5445560
  51.4389550  18.9130700  74.3607680  50.5506250  19.2546670  74.2587560
  51.7230740  18.7131020  73.4688510  49.4022560  21.5136350  80.2447380
  49.9738670  20.7458550  80.2451020  49.4024100  21.8125110  79.3353990
  59.2602510  30.3327200  78.0992650  58.6413950  30.7884700  77.5287090
  60.1154290  30.4878660  77.6982350  58.4540760  26.3166190  79.7059690
  58.3849040  25.3756130  79.5448820  59.2160620  26.4067600  80.2782260
  59.4845930  19.1236570  79.9328620  59.8610750  18.2508450  79.8202290
  59.3865440  19.4595270  79.0419060  53.6150940  17.4962200  75.3946060
  53.7217690  18.3965930  75.7014820  52.7043300  17.4480170  75.1040710
  63.2670050  16.6187010  76.8656960  64.0879670  16.1283580  76.9082440
  63.3004130  17.2084670  77.6188800  51.2634100  19.4181210  80.6398650
  51.9444210  19.6819580  81.2586050  50.9482150  18.5782080  80.9736660
  55.4558670  20.4648570  79.7271240  55.9636890  20.9629540  80.3676260
  55.9871910  19.6883770  79.5510600  60.1265860  25.2166440  75.4924560
  59.5083130  25.6815890  74.9287280  60.6389110  25.9093920  75.9094070
  63.5031530  18.5587390  79.6384500  62.7987100  18.8472280  80.2187610
  63.8643690  19.3687500  79.2784060  49.4949060  25.9022970  72.8664190
  49.1177040  26.3910070  72.1349090  49.7522130  26.5748250  73.4970720
  65.1194310  28.1762520  81.9011980  64.4357830  28.8461630  81.8928650
  65.6588600  28.3743170  81.1356840  66.5718450  18.0042180  80.0293710
  65.6243360  18.0381160  80.1609140  66.8968440  18.8181130  80.4143070
  57.1037990  14.3039360  78.3249700  57.4112970  13.7486250  77.6085200
  56.1738690  14.4383820  78.1422690  62.6553050  30.0206650  80.6157160
  62.6680210  29.6168940  79.7479420  62.1028270  30.7953940  80.5118590
  63.9498470  26.7422870  75.7047330  63.8394800  25.7997200  75.8296750
  63.9466720  27.1038510  76.5910090  59.4918750  22.3688190  75.0609820
  58.5648030  22.3025570  75.2898290  59.6443570  23.3068320  74.9465060
  59.4787830  18.6405190  72.0576980  58.5391500  18.8019150  72.1429440
  59.7971090  19.3590870  71.5112970  66.0000590  23.3223710  82.0356010
  65.1719220  23.3916800  81.5606140  66.5951070  23.9078020  81.5671840
  63.5216040  23.9308490  75.5645070  62.9028460  23.5928040  74.9171370
  63.5040490  23.2868250  76.2724260  55.0975390  22.8952930  77.8429550
  54.6932390  22.1830180  77.3475450  55.1838510  22.5506170  78.7317590
  55.5657090  26.5820490  80.0068760  55.2685380  25.9765960  79.3276540
  56.5156910  26.6197800  79.8958120  61.6980740  23.1695300  72.5717820
  62.1374020  22.3317730  72.4255640  62.4109160  23.8024700  72.6581960
  59.8076120  28.1091370  76.5399060  60.2472030  28.8515700  76.1254450
  59.7463010  28.3517940  77.4638020  65.2797880  14.4238110  70.8858860
  64.9670540  14.5164940  71.7857930  66.0410350  15.0019140  70.8356290
  51.7980020  21.7897910  75.3436200  51.6777620  22.5160000  74.7317470
  51.4880910  21.0200820  74.8664110  49.4365390  24.9613050  81.1504840
  49.5145810  25.0961820  80.2060560  50.0507070  24.2528940  81.3432960
  50.6813020  26.6613240  77.5611020  50.2741100  26.8027830  76.7064620
  51.5726030  26.3773400  77.3582230  62.4746300  31.0960490  73.8962070
  62.3147440  30.8063430  74.7943900  62.3093010  30.3200620  73.3607300
  54.9534680  30.8759020  75.6733690  54.7777160  29.9594560  75.4601490
  54.0990420  31.2346310  75.9131490  62.1772430  28.6048050  72.4560070
  61.4837590  28.6025340  71.7962350  62.9195290  28.1807370  72.0254240
  61.7422360  30.2310760  76.5308560  62.1979310  29.4500140  76.8447180
  62.0814880  30.9417580  77.0749740  54.2643680  15.1332980  78.7259870
  53.8211830  15.9142520  78.3944390  54.8228670  15.4562870  79.4330810
  57.3802500  14.7543680  73.6065700  56.7556680  14.7503550  74.3319010
  57.2932620  13.8874640  73.2101670  56.3019580  15.6780310  80.5849470
  56.5991910  16.5843140  80.5041490  56.8505140  15.1899090  79.9709040
  54.0557900  20.2566550  76.4541120  53.8298820  20.0403720  77.3587740
  53.2750430  20.6895010  76.1087090  61.2855660  20.2629920  75.0531770
  60.6864550  20.9865720  74.8695390  61.8335270  20.2006700  74.2708220
  59.8920530  18.8993460  77.0835050  60.2850100  19.2165660  76.2703740
  60.2537380  18.0205340  77.1979570  48.9284700  15.4894260  79.3065250
  48.6397750  16.0597120  80.0190230  49.6730460  15.0098710  79.6696480
  49.1154930  19.4314380  70.5167970  49.0329600  20.3745140  70.6582960
  48.7637990  19.2889290  69.6380320  60.4775670  21.4899210  81.1785830
  59.7456790  21.9986020  81.5275930  60.0800010  20.6729190  80.8774610
  56.9153060  18.1653410  79.5838320  56.9189120  17.7243360  78.7342860
  57.8104180  18.4870740  79.6910140  52.7655440  18.0479900  78.5432530
  52.4255490  18.5255130  79.2999580  52.0032760  17.5945020  78.1833630
  56.9773210  19.1665490  72.5745080  57.0986030  19.1251970  73.5230900
  56.5921720  20.0289640  72.4191810  60.9401580  16.9432890  80.5908770
  60.9574320  17.3941540  81.4350620  60.6917160  16.0438530  80.8042210
  55.9894710  21.4766630  71.9728380  55.4211610  21.0284880  71.3464290
  56.6983710  21.8359410  71.4393530  50.0801520  16.9698880  77.4597200
  49.7948440  16.6054550  78.2975820  50.0180380  16.2379340  76.8460340
  53.5342190  25.4724820  74.2454790  52.7604450  24.9322440  74.0853510
  54.2636820  24.9531430  73.9072550  64.2930170  24.4690180  80.0381180
  65.0129290  24.9645470  79.6477290  64.0911990  23.7908070  79.3935050
  59.7540110  15.8628140  74.1810570  58.9404720  15.3641310  74.1055880
  59.5602060  16.7026390  73.7646920  62.4688500  20.2347790  72.4772730
  63.3568120  20.5465020  72.3024070  62.4393590  19.3620040  72.0853310
  53.5779590  25.1405200  77.8833600  54.0958260  24.3373460  77.8290490
  53.1263610  25.0784340  78.7250430  58.4649090  26.4071480  73.1560900
  58.8064790  27.1513710  72.6604220  57.6361800  26.7202600  73.5185730
  64.7402770  21.5459630  71.9452590  64.6566490  21.9773850  71.0949030
  65.4596960  22.0057980  72.3779410  65.7690020  28.4001890  74.6734720
  65.1266180  27.7457510  74.9478440  65.3820680  28.8056980  73.8975390
  61.3476500  25.7287320  78.5206410  61.7000320  25.1315450  77.8607780
  60.4638830  25.4031550  78.6914660  57.4339780  26.4885010  75.9276820
  58.1210910  27.0354220  76.3084410  56.6472200  27.0325740  75.9626430
  49.5732180  22.1057830  71.4193900  50.4427030  22.3882630  71.7029820
  49.0822500  22.9193700  71.3042710  56.7366990  23.4931040  75.5402180
  57.1929770  24.3036290  75.7662370  56.3855200  23.1754180  76.3720670
  52.6378770  13.8368690  76.0124700  52.5093400  13.8286590  76.9609620
  51.8140790  14.1751780  75.6615710  60.3131680  27.0069730  81.4871930
  60.9553910  26.3062890  81.6004100  60.8381030  27.7868170  81.3068820
  64.1587400  27.2918350  71.2111070  63.9324980  26.5748790  71.8035710
  63.7683600  27.0430790  70.3732820  49.9403430  31.3185210  71.9855530
  50.3001070  31.9174550  71.3312800  49.7995770  31.8645100  72.7590560
  63.7403650  25.2090290  72.8725230  63.4525350  25.6702980  73.6603110
  64.5355820  24.7488060  73.1409450  55.9572050  28.7016410  72.8029200
  55.9482150  29.4346100  72.1873710  55.0370410  28.4547990  72.8956160
  51.5578690  23.9231300  73.5475960  50.9506640  24.6630200  73.5571260
  52.0328040  24.0130660  72.7214160  64.4973510  17.0439060  74.0320410
  63.8686670  17.1484730  73.3178640  64.0025430  17.2635840  74.8214290
  58.9431650  28.7644650  71.4654390  59.0443630  28.5608640  70.5356370
  58.0433390  28.5102930  71.6702170  56.4657540  19.3225010  75.4478290
  55.7573690  19.7911350  75.8891900  56.7502020  18.6647020  76.0823480
  60.4972970  16.0475670  76.8874080  60.3740750  16.0661800  75.9383590
  61.4457530  16.0954610  77.0072480  57.5849760  31.2830970  76.1602060
  57.8391260  31.2452360  75.2381430  56.6362240  31.1564300  76.1530310
  54.6692560  17.6310090  72.8229000  55.5183090  18.0680240  72.7569190
  54.3023830  17.9430350  73.6501060  63.5902340  22.2022850  77.7360570
  62.6492480  22.2173080  77.9108260  63.9046410  21.4158810  78.1820870
  53.5683980  23.8842450  71.2964530  54.3347250  23.7723810  71.8589960
  53.6458670  23.1880420  70.6441300  52.2630740  21.3167520  71.9797420
  52.3434330  20.3695030  72.0914820  53.1550490  21.6474400  72.0858080
  65.5927920  29.3731700  79.4114830  65.7175340  30.1962870  79.8838640
  66.4593480  29.1622430  79.0638980  53.0645450  31.4662910  79.0831960
  53.8007930  30.9178370  79.3540530  53.4486370  32.3318920  78.9437950
  49.9490930  27.5336480  74.9573470  49.0230710  27.7757620  74.9478880
  50.4147360  28.3610740  74.8358220  56.1747760  30.6393220  70.9057530
  56.9676370  30.9282050  70.4539320  55.6552110  30.2085390  70.2270010
  65.2277930  29.8663350  72.3294270  64.9419440  29.4528490  71.5148450
  65.0297480  30.7951060  72.2094790  56.6925160  25.8596630  70.7699880
  56.5875800  25.2448980  71.4961260  56.5249380  25.3362520  69.9862890
  59.9327890  24.9216660  71.3741870  59.3837990  25.3685960  72.0184610
  60.5547150  24.4165910  71.8979540  55.6003010  23.8807580  73.2707170
  56.0219430  23.7147450  74.1138560  55.7253850  23.0707810  72.7762310
  58.1130650  22.9045190  70.5184270  58.6336310  22.1894210  70.1525420
  58.7599050  23.5431060  70.8184780  54.4961910  19.9540810  70.2165330
  54.2950970  19.0908170  70.5778670  54.3253960  19.8674170  69.2786930
  61.9750220  14.7649040  72.7452210  62.2552510  13.9216940  73.1011630
  61.2015950  14.9972150  73.2590960  53.2944710  17.0541430  70.2043210
  53.5970610  17.0608860  69.2962360  54.0339300  16.7039290  70.7010870
  56.5129640  15.9976050  71.1899410  56.1651640  15.3200040  70.6101860
  56.7142410  15.5365560  72.0042800  58.6778680  30.9856800  72.8086010
  59.5729470  31.3241770  72.8304770  58.7096310  30.2636210  72.1810290
  52.3174840  26.3583850  71.0373010  52.7549710  26.9013520  71.6930590
  52.8022570  25.5330800  71.0469350  49.5320640  29.1472880  78.4893270
  49.8623650  28.2793940  78.2571910  49.9611640  29.3531400  79.3198230
  54.1282560  27.4781890  76.1495240  53.8278100  27.3546860  77.0499150
  54.0220050  26.6190480  75.7410970  66.8974480  27.2578290  70.8521920
  66.0667440  27.3254940  71.3229150  67.0746310  28.1482410  70.5488780
  66.3530940  24.0025770  73.3556120  67.1149850  24.5722420  73.4615810
  66.3685310  23.4352970  74.1264430  49.8535280  22.5263700  77.5863780
  49.1984120  22.2575340  76.9423480  50.6913230  22.4168180  77.1365760
  67.3590910  24.8575870  78.1998050  67.7299740  24.0743190  77.7934020
  67.9992840  25.5464970  78.0215350  66.4050110  24.2960140  70.5128640
  66.6798950  25.2039020  70.3847860  66.2160850  24.2322670  71.4490630
  62.8025720  17.3204990  71.8082270  63.2210600  17.1335970  70.9678930
  62.4961780  16.4684040  72.1185200  66.3015450  22.2329130  75.5058070
  65.9259050  21.4657060  75.0739360  65.5718570  22.6151830  75.9933000
  49.0673360  19.7362630  73.5289110  48.1637440  19.9992830  73.3540770
  49.5513980  20.0073800  72.7489070  65.5766410  20.4586620  78.8065310
  66.1003890  19.9649270  78.1755480  66.1625830  20.5936980  79.5512880
  51.6100570  18.7928170  71.4383490  52.3192270  18.3711390  70.9530770
  50.8940510  18.8603400  70.8066840  51.2574730  14.8467500  70.4786140
  51.9802860  15.3876440  70.7967360  51.5299250  14.5730920  69.6027680
  65.0666380  19.7159970  74.7457720  65.5625500  19.4830840  75.5306600
  64.8682450  18.8771810  74.3295360  50.9466920  14.0973690  80.3808760
  51.5943110  13.5471070  79.9403920  51.3668760  14.3516840  81.2024570
  66.4953540  18.3520920  77.2795400  66.3852820  18.1976960  78.2177670
  67.2561130  17.8241860  77.0370810  67.3843810  16.1828840  70.5201540
  68.3093120  16.0510020  70.3119830  67.3619600  16.2621660  71.4737990
  67.4582300  16.9539500  73.1458250  66.6633800  16.8884620  73.6751160
  67.6625580  17.8890140  73.1343600  64.4000720  30.9931050  77.1396640
  64.9959790  30.6715620  76.4631060  64.6578870  30.5202870  77.9309910
  64.9512930  31.6426350  80.9694370  64.4915900  32.3942160  80.5952390
  64.3225390  30.9232820  80.9109170  55.3808650  29.9514590  80.1442500
  55.8973670  29.3401950  79.6190760  56.0306030  30.4543370  80.6353510
  58.1204150  30.8423080  80.9711480  58.4081960  30.5877380  80.0944490
  58.6327370  30.2900440  81.5617050  59.3381160  14.5813280  81.5507990
  58.5552950  15.0558780  81.8304750  59.0444090  13.6768110  81.4421170
  63.8902230  15.2836380  79.5957080  64.3310320  15.2281480  78.7478680
  63.6209820  16.1994390  79.6667260  65.7540800  14.9151620  77.6065900
  65.6929200  13.9712840  77.4596920  66.5332830  15.0231710  78.1519360
  50.0593550  31.0543980  76.5689850  49.8915590  30.4214660  77.2671740
  49.1928060  31.2603380  76.2184040  50.6821570  14.8860760  74.0721710
  51.4400930  14.9989640  73.4985740  50.2198740  15.7229960  74.0265140
  57.2235380  17.0000030  77.0624020  56.4109890  16.6256920  76.7219900
  57.7277020  16.2445110  77.3645210  61.7260360  13.6642480  78.3007090
  62.3289730  14.2362690  78.7755610  60.9853350  14.2281920  78.0780990
  64.8694960  14.0664040  73.5747370  65.0645590  14.9647490  73.8414800
  64.0824830  13.8351120  74.0680320  51.6656250  29.7477210  74.0139990
  51.1403870  30.1285240  73.3101950  51.5900830  30.3727980  74.7349700
  53.0546720  15.4124810  72.6123680  53.5839480  14.6254610  72.4831630
  53.6875040  16.0916000  72.8459210  55.2484560  15.1499950  75.6669070
  54.6187300  14.4487260  75.8339200  54.7089700  15.9104080  75.4502230
  66.4221570  31.3064750  75.3353930  66.5973760  30.6202490  74.6914850
  65.7243140  31.8311800  74.9430600  54.2649220  31.6959590  72.8889240
  54.9968040  31.4118870  72.3413130  54.5242890  31.4572870  73.7788620
  53.4264010  27.8124320  72.8935570  52.7972890  28.2809420  73.4421400
  53.5411840  26.9673540  73.3281760  60.8813730  21.8629980  59.0436770
  60.8007780  20.9484590  58.7728480  60.4678150  22.3597050  58.3376480
  63.0339200  28.0469190  59.7045170  62.5720730  27.2756430  60.0332340
  63.8464750  28.0735260  60.2097620  59.2602510  30.3327200  59.3249160
  58.6413950  30.7884700  58.7543600  60.1154290  30.4878660  58.9238860
  63.2670050  16.6187010  58.0913470  64.0879670  16.1283580  58.1338950
  63.3004130  17.2084670  58.8445310  67.5569600  18.6353760  64.6557100
  66.8521770  19.0235470  64.1372210  67.8227520  19.3304050  65.2578030
  53.7394770  15.1047130  65.2191170  53.7413210  15.6219520  64.4137070
  52.9099080  14.6277310  65.1961100  60.1265860  25.2166440  56.7181070
  59.5083130  25.6815890  56.1543790  60.6389110  25.9093920  57.1350580
  63.5031530  18.5587390  60.8641010  62.7987100  18.8472280  61.4444120
  63.8643690  19.3687500  60.5040570  65.1194310  28.1762520  63.1268490
  64.4357830  28.8461630  63.1185160  65.6588600  28.3743170  62.3613350
  66.5718450  18.0042180  61.2550220  65.6243360  18.0381160  61.3865650
  66.8968440  18.8181130  61.6399580  57.1037990  14.3039360  59.5506210
  57.4112970  13.7486250  58.8341710  56.1738690  14.4383820  59.3679200
  62.6553050  30.0206650  61.8413670  62.6680210  29.6168940  60.9735930
  62.1028270  30.7953940  61.7375100  63.9498470  26.7422870  56.9303840
  63.8394800  25.7997200  57.0553260  63.9466720  27.1038510  57.8166600
  62.0538490  24.9236490  63.1696280  62.4707280  24.7096600  62.3349740
  62.7778310  25.1809280  63.7404900  59.4918750  22.3688190  56.2866330
  58.5648030  22.3025570  56.5154800  59.6443570  23.3068320  56.1721570
  66.0000590  23.3223710  63.2612520  65.1719220  23.3916800  62.7862650
  66.5951070  23.9078020  62.7928350  63.5216040  23.9308490  56.7901580
  62.9028460  23.5928040  56.1427880  63.5040490  23.2868250  57.4980770
  62.9642600  20.1093030  64.2067390  62.5513780  20.9346740  64.4607380
  62.2318550  19.5238070  64.0143750  63.6542700  30.1552360  64.8948370
  63.1773260  30.9624550  64.7020980  62.9704490  29.5030690  65.0474580
  54.6575520  26.3202180  67.8833070  53.7604050  26.5442150  68.1306470
  54.6828390  26.4437120  66.9344470  61.6980740  23.1695300  53.7974330
  62.1374020  22.3317730  53.6512150  62.4109160  23.8024700  53.8838470
  55.2827090  29.1337200  68.6675590  55.2542520  29.5380150  67.8004020
  55.1192060  28.2047560  68.5047190  65.2797880  14.4238110  52.1115370
  64.9670540  14.5164940  53.0114440  66.0410350  15.0019140  52.0612800
  67.2341910  29.9164300  69.9639760  67.7101630  30.3947190  70.6428840
  67.8549070  29.8481790  69.2385260  66.6375160  27.1077150  67.1239770
  66.7638220  26.8689030  66.2056950  66.6796540  26.2761690  67.5961850
  60.4991900  30.8105150  65.6934580  61.0136570  30.7213160  66.4957010
  59.6560980  31.1564850  65.9862490  61.7422360  30.2310760  57.7565070
  62.1979310  29.4500140  58.0703690  62.0814880  30.9417580  58.3006250
  66.4899170  19.1609610  68.0889510  65.8743440  19.6689280  67.5604970
  66.1695590  18.2607940  68.0315450  54.2643680  15.1332980  59.9516380
  53.8211830  15.9142520  59.6200900  54.8228670  15.4562870  60.6587320
  58.5513490  18.0001500  65.5551700  58.0892860  18.2084520  66.3671640
  58.1491600  17.1860850  65.2522370  63.5518000  19.2210450  66.6848360
  62.7011590  18.9216200  67.0057430  63.3919790  19.4652460  65.7732180
  60.6467710  20.7212200  68.7847150  60.9721120  19.8875950  68.4449380
  61.4348040  21.2440720  68.9325480  57.3802500  14.7543680  54.8322210
  56.7556680  14.7503550  55.5575520  57.2932620  13.8874640  54.4358180
  56.3019580  15.6780310  61.8105980  56.5991910  16.5843140  61.7298000
  56.8505140  15.1899090  61.1965550  61.2855660  20.2629920  56.2788280
  60.6864550  20.9865720  56.0951900  61.8335270  20.2006700  55.4964730
  56.4957110  21.1552130  68.3457900  56.4000710  20.2146860  68.1958300
  57.3389090  21.3767200  67.9505970  58.2012700  17.6500770  69.5688420
  57.5111020  17.4572970  70.2034510  58.9445000  17.9335410  70.1012720
  48.9284700  15.4894260  60.5321760  48.6397750  16.0597120  61.2446740
  49.6730460  15.0098710  60.8952990  49.1154930  19.4314380  51.7424480
  49.0329600  20.3745140  51.8839470  48.7637990  19.2889290  50.8636830
  60.4775670  21.4899210  62.4042340  59.7456790  21.9986020  62.7532440
  60.0800010  20.6729190  62.1031120  60.9401580  16.9432890  61.8165280
  60.9574320  17.3941540  62.6607130  60.6917160  16.0438530  62.0298720
  64.3672330  14.3565070  67.6551660  64.6918100  13.6254730  68.1809640
  64.4028840  14.0378710  66.7532650  64.2930170  24.4690180  61.2637690
  65.0129290  24.9645470  60.8733800  64.0911990  23.7908070  60.6191560
  59.7540110  15.8628140  55.4067080  58.9404720  15.3641310  55.3312390
  59.5602060  16.7026390  54.9903430  59.6748970  24.5399240  67.1506690
  59.6086280  23.6194910  66.8964280  59.0454110  24.6374680  67.8651330
  62.4688500  20.2347790  53.7029240  63.3568120  20.5465020  53.5280580
  62.4393590  19.3620040  53.3109820  59.6065700  27.3619810  66.9010490
  59.6210240  26.4300770  66.6829400  58.8990800  27.4479570  67.5400260
  64.7402770  21.5459630  53.1709100  64.6566490  21.9773850  52.3205540
  65.4596960  22.0057980  53.6035920  65.8176910  24.0027150  66.2479070
  65.0925100  24.5955930  66.0508460  66.3452370  23.9950690  65.4492440
  65.7690020  28.4001890  55.8991230  65.1266180  27.7457510  56.1734950
  65.3820680  28.8056980  55.1231900  61.3476500  25.7287320  59.7462920
  61.7000320  25.1315450  59.0864290  60.4638830  25.4031550  59.9171170
  59.0399600  29.0037380  63.9950990  59.6841820  29.2096760  64.6724410
  59.4029040  28.2425780  63.5421840  60.3131680  27.0069730  62.7128440
  60.9553910  26.3062890  62.8260610  60.8381030  27.7868170  62.5325330
  62.0869300  27.8064630  65.9164500  62.4225540  28.3931320  66.5942420
  61.1669640  27.6757340  66.1462290  49.6372700  15.5959810  66.6987910
  48.9231220  15.7956730  67.3040520  50.0567740  14.8199380  67.0702710
  63.7403650  25.2090290  54.0981740  63.4525350  25.6702980  54.8859620
  64.5355820  24.7488060  54.3665960  57.9157880  27.8555960  69.0852560
  57.5954750  27.1365200  69.6298250  57.2416240  28.5311030  69.1588620
  61.1311480  18.0882120  64.4489360  61.4992300  17.2677330  64.7768930
  60.2709680  18.1484010  64.8645010  64.4973510  17.0439060  55.2576920
  63.8686670  17.1484730  54.5435150  64.0025430  17.2635840  56.0470800
  60.4972970  16.0475670  58.1130590  60.3740750  16.0661800  57.1640100
  61.4457530  16.0954610  58.2328990  65.2980330  16.9589670  65.5155720
  64.7953930  17.6995070  65.8549530  66.1136990  17.3473670  65.1992510
  63.5902340  22.2022850  58.9617080  62.6492480  22.2173080  59.1364770
  63.9046410  21.4158810  59.4077380  65.5927920  29.3731700  60.6371340
  65.7175340  30.1962870  61.1095150  66.4593480  29.1622430  60.2895490
  52.0703730  30.6508980  69.4974050  52.8716460  30.9721030  69.9109450
  51.5555550  30.2904560  70.2193960  60.9068360  26.7588850  69.4449460
  60.3006520  26.7820450  68.7045210  60.6022470  26.0271890  69.9816710
  62.3368730  30.4869140  68.0558870  63.2890480  30.4027160  68.0059110
  62.1896950  31.1510850  68.7292660  65.2277930  29.8663350  53.5550780
  64.9419440  29.4528490  52.7404960  65.0297480  30.7951060  53.4351300
  56.8439480  24.5453430  67.9745620  56.0785150  25.1138430  67.8900290
  57.0255440  24.2529640  67.0813850  63.9862830  26.2758760  68.5320640
  64.7272300  26.6134520  68.0288100  63.2235510  26.4450820  67.9790410
  62.6608490  24.3273590  67.0675850  63.0749510  24.4818670  67.9166270
  61.7259490  24.4528810  67.2301630  63.1330660  21.6669750  69.0715000
  63.7151430  20.9122070  68.9835480  63.3092430  22.1977190  68.2946480
  54.2502730  16.8266500  67.3831950  54.1559600  16.2087250  66.6582820
  53.6700120  17.5532790  67.1561860  57.0164170  15.3839740  64.4159340
  56.5681470  15.4064000  63.5704890  56.3829370  14.9858760  65.0129640
  57.4223720  24.2794070  65.0371780  57.8411830  25.1226800  64.8648020
  56.5032350  24.4166110  64.8078560  59.7587620  22.0110250  66.4209620
  59.8783830  21.4151390  67.1604460  60.6181620  22.0479940  66.0010920
  62.0975520  22.5647440  64.9972130  61.5710740  23.0890060  64.3937270
  62.4406860  23.1974830  65.6281860  55.2731140  30.5847080  66.1529510
  54.7352230  31.3093140  65.8338210  55.5265100  30.1077420  65.3626850
  56.5256390  18.5531600  67.6785440  57.1156080  18.2447450  68.3663260
  55.7076630  18.0811350  67.8345340  61.3449820  18.1697410  67.9118460
  60.6565340  17.5078950  67.8468450  62.0655840  17.7235680  68.3566920
  61.9750220  14.7649040  53.9708720  62.2552510  13.9216940  54.3268140
  61.2015950  14.9972150  54.4847470  58.1293350  31.8198290  66.4116160
  58.0552050  32.7233430  66.7188530  57.2272190  31.5010190  66.3838230
  65.6573030  29.5160470  66.7408720  65.0575020  29.5753030  65.9972640
  65.7866930  28.5765450  66.8705570  66.8974480  27.2578290  52.0778430
  66.0667440  27.3254940  52.5485660  67.0746310  28.1482410  51.7745290
  66.3530940  24.0025770  54.5812630  67.1149850  24.5722420  54.6872320
  66.3685310  23.4352970  55.3520940  67.3590910  24.8575870  59.4254560
  67.7299740  24.0743190  59.0190530  67.9992840  25.5464970  59.2471860
  64.3424670  26.2412450  64.8384880  63.5284510  26.6709610  65.1010670
  64.7498870  26.8530860  64.2253930  66.4050110  24.2960140  51.7385150
  66.6798950  25.2039020  51.6104370  66.2160850  24.2322670  52.6747140
  62.8025720  17.3204990  53.0338780  63.2210600  17.1335970  52.1935440
  62.4961780  16.4684040  53.3441710  66.3015450  22.2329130  56.7314580
  65.9259050  21.4657060  56.2995870  65.5718570  22.6151830  57.2189510
  65.6915070  21.3800650  66.3654100  65.4601160  21.1513400  65.4652050
  65.9519620  22.3000200  66.3198990  64.1303140  16.6057080  69.1433800
  65.0073320  16.6140480  69.5267800  64.1423980  15.8687920  68.5326150
  65.5766410  20.4586620  60.0321820  66.1003890  19.9649270  59.4011990
  66.1625830  20.5936980  60.7769390  65.7556130  20.5426490  63.5541370
  64.8058840  20.5090030  63.6686360  65.9369140  21.4526600  63.3191140
  65.0666380  19.7159970  55.9714230  65.5625500  19.4830840  56.7563110
  64.8682450  18.8771810  55.5551870  50.9466920  14.0973690  61.6065270
  51.5943110  13.5471070  61.1660430  51.3668760  14.3516840  62.4281080
  66.4953540  18.3520920  58.5051910  66.3852820  18.1976960  59.4434180
  67.2561130  17.8241860  58.2627320  64.8419260  14.2915050  64.9634910
  65.4791480  14.9049190  65.3294100  64.9894150  14.3275710  64.0184140
  67.3843810  16.1828840  51.7458050  68.3093120  16.0510020  51.5376340
  67.3619600  16.2621660  52.6994500  67.4582300  16.9539500  54.3714760
  66.6633800  16.8884620  54.9007670  67.6625580  17.8890140  54.3600110
  64.4000720  30.9931050  58.3653150  64.9959790  30.6715620  57.6887570
  64.6578870  30.5202870  59.1566420  50.6998920  14.2529360  64.3490590
  50.3513740  14.7093180  65.1148770  50.3686620  13.3586490  64.4313020
  58.2123740  15.4441240  67.8710010  58.1512630  16.0363070  68.6205420
  59.1524120  15.3367200  67.7260270  60.8498300  15.1011300  67.5102300
  61.4638710  15.4190590  66.8483380  61.3947860  14.6159890  68.1298160
  67.2673480  31.0002930  64.9164140  66.7731760  31.3971800  64.1991270
  66.6586770  30.3752140  65.3101420  51.3719560  13.7805560  67.6241360
  51.9202550  13.5993610  66.8607470  51.4374870  12.9899670  68.1597670
  61.5906340  13.6643440  63.8371590  60.7166180  13.9978550  63.6344520
  61.4817090  13.1916620  64.6623460  62.4978320  15.8714310  65.2213310
  62.1691680  15.0566070  64.8415040  63.4460620  15.8284120  65.0979000
  64.9512930  31.6426350  62.1950880  64.4915900  32.3942160  61.8208900
  64.3225390  30.9232820  62.1365680  59.3381160  14.5813280  62.7764500
  58.5552950  15.0558780  63.0561260  59.0444090  13.6768110  62.6677680
  63.8902230  15.2836380  60.8213590  64.3310320  15.2281480  59.9735190
  63.6209820  16.1994390  60.8923770  65.7540800  14.9151620  58.8322410
  65.6929200  13.9712840  58.6853430  66.5332830  15.0231710  59.3775870
  61.7260360  13.6642480  59.5263600  62.3289730  14.2362690  60.0012120
  60.9853350  14.2281920  59.3037500  64.8694960  14.0664040  54.8003880
  65.0645590  14.9647490  55.0671310  64.0824830  13.8351120  55.2936830
  55.2484560  15.1499950  56.8925580  54.6187300  14.4487260  57.0595710
  54.7089700  15.9104080  56.6758740  58.1876510  31.7639180  69.5636190
  59.1143820  31.5283450  69.6072150  58.1726940  32.5911180  69.0822220
  66.4221570  31.3064750  56.5610440  66.5973760  30.6202490  55.9171360
  65.7243140  31.8311800  56.1687110  55.3740120  14.4283930  69.3278070
  55.0924390  14.9317530  68.5638890  55.7559820  13.6305680  68.9620200
  61.9755580  13.8437510  69.9058540  61.8621030  14.1632120  70.8010060
  62.7925320  14.2450020  69.6095820  64.7554070  30.9909040  69.3877230
  65.5479390  30.4958270  69.1803190  65.0487220  31.6699180  69.9952840
  60.8813730  21.8629980  40.2693280  60.8007780  20.9484590  39.9984990
  60.4678150  22.3597050  39.5632990  59.0131770  23.6409000  42.1502550
  58.2373870  23.1609440  42.4401120  59.6644700  22.9614650  41.9758710
  63.0339200  28.0469190  40.9301680  62.5720730  27.2756430  41.2588850
  63.8464750  28.0735260  41.4354130  59.2602510  30.3327200  40.5505670
  58.6413950  30.7884700  39.9800110  60.1154290  30.4878660  40.1495370
  58.4540760  26.3166190  42.1572710  58.3849040  25.3756130  41.9961840
  59.2160620  26.4067600  42.7295280  59.4845930  19.1236570  42.3841640
  59.8610750  18.2508450  42.2715310  59.3865440  19.4595270  41.4932080
  63.2670050  16.6187010  39.3169980  64.0879670  16.1283580  39.3595460
  63.3004130  17.2084670  40.0701820  55.4558670  20.4648570  42.1784260
  55.9636890  20.9629540  42.8189280  55.9871910  19.6883770  42.0023620
  67.5569600  18.6353760  45.8813610  66.8521770  19.0235470  45.3628720
  67.8227520  19.3304050  46.4834540  53.7394770  15.1047130  46.4447680
  53.7413210  15.6219520  45.6393580  52.9099080  14.6277310  46.4217610
  60.1265860  25.2166440  37.9437580  59.5083130  25.6815890  37.3800300
  60.6389110  25.9093920  38.3607090  54.9897620  24.7442310  44.6221180
  54.6567000  25.3711230  45.2642250  55.1664300  25.2704190  43.8422850
  63.5031530  18.5587390  42.0897520  62.7987100  18.8472280  42.6700630
  63.8643690  19.3687500  41.7297080  53.4210100  16.8157090  44.4518130
  53.7626910  17.6599140  44.1572000  52.4825910  16.9640830  44.5683470
  65.1194310  28.1762520  44.3525000  64.4357830  28.8461630  44.3441670
  65.6588600  28.3743170  43.5869860  66.5718450  18.0042180  42.4806730
  65.6243360  18.0381160  42.6122160  66.8968440  18.8181130  42.8656090
  57.1037990  14.3039360  40.7762720  57.4112970  13.7486250  40.0598220
  56.1738690  14.4383820  40.5935710  62.6553050  30.0206650  43.0670180
  62.6680210  29.6168940  42.1992440  62.1028270  30.7953940  42.9631610
  63.9498470  26.7422870  38.1560350  63.8394800  25.7997200  38.2809770
  63.9466720  27.1038510  39.0423110  62.0538490  24.9236490  44.3952790
  62.4707280  24.7096600  43.5606250  62.7778310  25.1809280  44.9661410
  59.4918750  22.3688190  37.5122840  58.5648030  22.3025570  37.7411310
  59.6443570  23.3068320  37.3978080  59.4787830  18.6405190  34.5090000
  58.5391500  18.8019150  34.5942460  59.7971090  19.3590870  33.9625990
  66.0000590  23.3223710  44.4869030  65.1719220  23.3916800  44.0119160
  66.5951070  23.9078020  44.0184860  63.5216040  23.9308490  38.0158090
  62.9028460  23.5928040  37.3684390  63.5040490  23.2868250  38.7237280
  62.9642600  20.1093030  45.4323900  62.5513780  20.9346740  45.6863890
  62.2318550  19.5238070  45.2400260  55.0975390  22.8952930  40.2942570
  54.6932390  22.1830180  39.7988470  55.1838510  22.5506170  41.1830610
  53.8104010  19.6696140  44.0741610  54.3618600  19.7791480  43.2994860
  54.3247520  20.0433740  44.7896840  63.6542700  30.1552360  46.1204880
  63.1773260  30.9624550  45.9277490  62.9704490  29.5030690  46.2731090
  61.6980740  23.1695300  35.0230840  62.1374020  22.3317730  34.8768660
  62.4109160  23.8024700  35.1094980  59.8076120  28.1091370  38.9912080
  60.2472030  28.8515700  38.5767470  59.7463010  28.3517940  39.9151040
  65.2797880  14.4238110  33.3371880  64.9670540  14.5164940  34.2370950
  66.0410350  15.0019140  33.2869310  67.2341910  29.9164300  51.1896270
  67.7101630  30.3947190  51.8685350  67.8549070  29.8481790  50.4641770
  66.6375160  27.1077150  48.3496280  66.7638220  26.8689030  47.4313460
  66.6796540  26.2761690  48.8218360  60.4991900  30.8105150  46.9191090
  61.0136570  30.7213160  47.7213520  59.6560980  31.1564850  47.2119000
  62.4746300  31.0960490  36.3475090  62.3147440  30.8063430  37.2456920
  62.3093010  30.3200620  35.8120320  62.1772430  28.6048050  34.9073090
  61.4837590  28.6025340  34.2475370  62.9195290  28.1807370  34.4767260
  61.7422360  30.2310760  38.9821580  62.1979310  29.4500140  39.2960200
  62.0814880  30.9417580  39.5262760  66.4899170  19.1609610  49.3146020
  65.8743440  19.6689280  48.7861480  66.1695590  18.2607940  49.2571960
  54.2643680  15.1332980  41.1772890  53.8211830  15.9142520  40.8457410
  54.8228670  15.4562870  41.8843830  58.5513490  18.0001500  46.7808210
  58.0892860  18.2084520  47.5928150  58.1491600  17.1860850  46.4778880
  63.5518000  19.2210450  47.9104870  62.7011590  18.9216200  48.2313940
  63.3919790  19.4652460  46.9988690  57.3802500  14.7543680  36.0578720
  56.7556680  14.7503550  36.7832030  57.2932620  13.8874640  35.6614690
  56.3019580  15.6780310  43.0362490  56.5991910  16.5843140  42.9554510
  56.8505140  15.1899090  42.4222060  54.0557900  20.2566550  38.9054140
  53.8298820  20.0403720  39.8100760  53.2750430  20.6895010  38.5600110
  61.2855660  20.2629920  37.5044790  60.6864550  20.9865720  37.3208410
  61.8335270  20.2006700  36.7221240  59.8920530  18.8993460  39.5348070
  60.2850100  19.2165660  38.7216760  60.2537380  18.0205340  39.6492590
  51.6267650  17.5665800  47.7248190  51.2331040  18.4141010  47.9320970
  50.9386050  16.9292170  47.9156830  60.4775670  21.4899210  43.6298850
  59.7456790  21.9986020  43.9788950  60.0800010  20.6729190  43.3287630
  56.9153060  18.1653410  42.0351340  56.9189120  17.7243360  41.1855880
  57.8104180  18.4870740  42.1423160  52.7655440  18.0479900  40.9945550
  52.4255490  18.5255130  41.7512600  52.0032760  17.5945020  40.6346650
  56.9773210  19.1665490  35.0258100  57.0986030  19.1251970  35.9743920
  56.5921720  20.0289640  34.8704830  60.9401580  16.9432890  43.0421790
  60.9574320  17.3941540  43.8863640  60.6917160  16.0438530  43.2555230
  55.9894710  21.4766630  34.4241400  55.4211610  21.0284880  33.7977310
  56.6983710  21.8359410  33.8906550  64.3672330  14.3565070  48.8808170
  64.6918100  13.6254730  49.4066150  64.4028840  14.0378710  47.9789160
  57.2161030  22.2255190  43.7816750  57.5831160  21.7513760  44.5278090
  57.0266090  23.0996760  44.1225090  55.0060400  21.2663830  46.1000960
  54.7017470  22.1455810  46.3251320  55.9606860  21.3263620  46.1358400
  64.2930170  24.4690180  42.4894200  65.0129290  24.9645470  42.0990310
  64.0911990  23.7908070  41.8448070  59.7540110  15.8628140  36.6323590
  58.9404720  15.3641310  36.5568900  59.5602060  16.7026390  36.2159940
  62.4688500  20.2347790  34.9285750  63.3568120  20.5465020  34.7537090
  62.4393590  19.3620040  34.5366330  58.4649090  26.4071480  35.6073920
  58.8064790  27.1513710  35.1117240  57.6361800  26.7202600  35.9698750
  59.6065700  27.3619810  48.1267000  59.6210240  26.4300770  47.9085910
  58.8990800  27.4479570  48.7656770  64.7402770  21.5459630  34.3965610
  64.6566490  21.9773850  33.5462050  65.4596960  22.0057980  34.8292430
  65.8176910  24.0027150  47.4735580  65.0925100  24.5955930  47.2764970
  66.3452370  23.9950690  46.6748950  65.7690020  28.4001890  37.1247740
  65.1266180  27.7457510  37.3991460  65.3820680  28.8056980  36.3488410
  61.3476500  25.7287320  40.9719430  61.7000320  25.1315450  40.3120800
  60.4638830  25.4031550  41.1427680  57.4339780  26.4885010  38.3789840
  58.1210910  27.0354220  38.7597430  56.6472200  27.0325740  38.4139450
  56.7366990  23.4931040  37.9915200  57.1929770  24.3036290  38.2175390
  56.3855200  23.1754180  38.8233690  59.0399600  29.0037380  45.2207500
  59.6841820  29.2096760  45.8980920  59.4029040  28.2425780  44.7678350
  52.6378770  13.8368690  38.4637720  52.5093400  13.8286590  39.4122640
  51.8140790  14.1751780  38.1128730  60.3131680  27.0069730  43.9384950
  60.9553910  26.3062890  44.0517120  60.8381030  27.7868170  43.7581840
  64.1587400  27.2918350  33.6624090  63.9324980  26.5748790  34.2548730
  63.7683600  27.0430790  32.8245840  62.0869300  27.8064630  47.1421010
  62.4225540  28.3931320  47.8198930  61.1669640  27.6757340  47.3718800
  49.9403430  31.3185210  34.4368550  50.3001070  31.9174550  33.7825820
  49.7995770  31.8645100  35.2103580  49.6372700  15.5959810  47.9244420
  48.9231220  15.7956730  48.5297030  50.0567740  14.8199380  48.2959220
  63.7403650  25.2090290  35.3238250  63.4525350  25.6702980  36.1116130
  64.5355820  24.7488060  35.5922470  55.9572050  28.7016410  35.2542220
  55.9482150  29.4346100  34.6386730  55.0370410  28.4547990  35.3469180
  61.1311480  18.0882120  45.6745870  61.4992300  17.2677330  46.0025440
  60.2709680  18.1484010  46.0901520  64.4973510  17.0439060  36.4833430
  63.8686670  17.1484730  35.7691660  64.0025430  17.2635840  37.2727310
  58.9431650  28.7644650  33.9167410  59.0443630  28.5608640  32.9869390
  58.0433390  28.5102930  34.1215190  56.4657540  19.3225010  37.8991310
  55.7573690  19.7911350  38.3404920  56.7502020  18.6647020  38.5336500
  58.0913470  20.7421710  45.8983840  58.5898720  21.2167530  46.5635690
  58.2336420  19.8185230  46.1053870  60.4972970  16.0475670  39.3387100
  60.3740750  16.0661800  38.3896610  61.4457530  16.0954610  39.4585500
  57.5849760  31.2830970  38.6115080  57.8391260  31.2452360  37.6894450
  56.6362240  31.1564300  38.6043330  54.6692560  17.6310090  35.2742020
  55.5183090  18.0680240  35.2082210  54.3023830  17.9430350  36.1014080
  65.2980330  16.9589670  46.7412230  64.7953930  17.6995070  47.0806040
  66.1136990  17.3473670  46.4249020  63.5902340  22.2022850  40.1873590
  62.6492480  22.2173080  40.3621280  63.9046410  21.4158810  40.6333890
  65.5927920  29.3731700  41.8627850  65.7175340  30.1962870  42.3351660
  66.4593480  29.1622430  41.5152000  56.1747760  30.6393220  33.3570550
  56.9676370  30.9282050  32.9052340  55.6552110  30.2085390  32.6783030
  65.2277930  29.8663350  34.7807290  64.9419440  29.4528490  33.9661470
  65.0297480  30.7951060  34.6607810  56.6925160  25.8596630  33.2212900
  56.5875800  25.2448980  33.9474280  56.5249380  25.3362520  32.4375910
  59.9327890  24.9216660  33.8254890  59.3837990  25.3685960  34.4697630
  60.5547150  24.4165910  34.3492560  63.9862830  26.2758760  49.7577150
  64.7272300  26.6134520  49.2544610  63.2235510  26.4450820  49.2046920
  55.6003010  23.8807580  35.7220190  56.0219430  23.7147450  36.5651580
  55.7253850  23.0707810  35.2275330  58.1130650  22.9045190  32.9697290
  58.6336310  22.1894210  32.6038440  58.7599050  23.5431060  33.2697800
  62.6608490  24.3273590  48.2932360  63.0749510  24.4818670  49.1422780
  61.7259490  24.4528810  48.4558140  63.1330660  21.6669750  50.2971510
  63.7151430  20.9122070  50.2091990  63.3092430  22.1977190  49.5202990
  54.2502730  16.8266500  48.6088460  54.1559600  16.2087250  47.8839330
  53.6700120  17.5532790  48.3818370  57.0164170  15.3839740  45.6415850
  56.5681470  15.4064000  44.7961400  56.3829370  14.9858760  46.2386150
  57.4223720  24.2794070  46.2628290  57.8411830  25.1226800  46.0904530
  56.5032350  24.4166110  46.0335070  62.0975520  22.5647440  46.2228640
  61.5710740  23.0890060  45.6193780  62.4406860  23.1974830  46.8538370
  54.4961910  19.9540810  32.6678350  54.2950970  19.0908170  33.0291690
  54.3253960  19.8674170  31.7299950  61.3449820  18.1697410  49.1374970
  60.6565340  17.5078950  49.0724960  62.0655840  17.7235680  49.5823430
  61.9750220  14.7649040  35.1965230  62.2552510  13.9216940  35.5524650
  61.2015950  14.9972150  35.7103980  53.2944710  17.0541430  32.6556230
  53.5970610  17.0608860  31.7475380  54.0339300  16.7039290  33.1523890
  56.5129640  15.9976050  33.6412430  56.1651640  15.3200040  33.0614880
  56.7142410  15.5365560  34.4555820  58.6778680  30.9856800  35.2599030
  59.5729470  31.3241770  35.2817790  58.7096310  30.2636210  34.6323310
  65.6573030  29.5160470  47.9665230  65.0575020  29.5753030  47.2229150
  65.7866930  28.5765450  48.0962080  66.8974480  27.2578290  33.3034940
  66.0667440  27.3254940  33.7742170  67.0746310  28.1482410  33.0001800
  66.3530940  24.0025770  35.8069140  67.1149850  24.5722420  35.9128830
  66.3685310  23.4352970  36.5777450  67.3590910  24.8575870  40.6511070
  67.7299740  24.0743190  40.2447040  67.9992840  25.5464970  40.4728370
  64.3424670  26.2412450  46.0641390  63.5284510  26.6709610  46.3267180
  64.7498870  26.8530860  45.4510440  66.4050110  24.2960140  32.9641660
  66.6798950  25.2039020  32.8360880  66.2160850  24.2322670  33.9003650
  62.8025720  17.3204990  34.2595290  63.2210600  17.1335970  33.4191950
  62.4961780  16.4684040  34.5698220  66.3015450  22.2329130  37.9571090
  65.9259050  21.4657060  37.5252380  65.5718570  22.6151830  38.4446020
  65.6915070  21.3800650  47.5910610  65.4601160  21.1513400  46.6908560
  65.9519620  22.3000200  47.5455500  64.1303140  16.6057080  50.3690310
  65.0073320  16.6140480  50.7524310  64.1423980  15.8687920  49.7582660
  65.5766410  20.4586620  41.2578330  66.1003890  19.9649270  40.6268500
  66.1625830  20.5936980  42.0025900  65.7556130  20.5426490  44.7797880
  64.8058840  20.5090030  44.8942870  65.9369140  21.4526600  44.5447650
  51.2574730  14.8467500  32.9299160  51.9802860  15.3876440  33.2480380
  51.5299250  14.5730920  32.0540700  65.0666380  19.7159970  37.1970740
  65.5625500  19.4830840  37.9819620  64.8682450  18.8771810  36.7808380
  66.4953540  18.3520920  39.7308420  66.3852820  18.1976960  40.6690690
  67.2561130  17.8241860  39.4883830  64.8419260  14.2915050  46.1891420
  65.4791480  14.9049190  46.5550610  64.9894150  14.3275710  45.2440650
  67.3843810  16.1828840  32.9714560  68.3093120  16.0510020  32.7632850
  67.3619600  16.2621660  33.9251010  67.4582300  16.9539500  35.5971270
  66.6633800  16.8884620  36.1264180  67.6625580  17.8890140  35.5856620
  64.4000720  30.9931050  39.5909660  64.9959790  30.6715620  38.9144080
  64.6578870  30.5202870  40.3822930  58.2123740  15.4441240  49.0966520
  58.1512630  16.0363070  49.8461930  59.1524120  15.3367200  48.9516780
  60.8498300  15.1011300  48.7358810  61.4638710  15.4190590  48.0739890
  61.3947860  14.6159890  49.3554670  67.2673480  31.0002930  46.1420650
  66.7731760  31.3971800  45.4247780  66.6586770  30.3752140  46.5357930
  51.3719560  13.7805560  48.8497870  51.9202550  13.5993610  48.0863980
  51.4374870  12.9899670  49.3854180  61.5906340  13.6643440  45.0628100
  60.7166180  13.9978550  44.8601030  61.4817090  13.1916620  45.8879970
  62.4978320  15.8714310  46.4469820  62.1691680  15.0566070  46.0671550
  63.4460620  15.8284120  46.3235510  64.9512930  31.6426350  43.4207390
  64.4915900  32.3942160  43.0465410  64.3225390  30.9232820  43.3622190
  58.1204150  30.8423080  43.4224500  58.4081960  30.5877380  42.5457510
  58.6327370  30.2900440  44.0130070  59.3381160  14.5813280  44.0021010
  58.5552950  15.0558780  44.2817770  59.0444090  13.6768110  43.8934190
  63.8902230  15.2836380  42.0470100  64.3310320  15.2281480  41.1991700
  63.6209820  16.1994390  42.1180280  65.7540800  14.9151620  40.0578920
  65.6929200  13.9712840  39.9109940  66.5332830  15.0231710  40.6032380
  57.2235380  17.0000030  39.5137040  56.4109890  16.6256920  39.1732920
  57.7277020  16.2445110  39.8158230  61.7260360  13.6642480  40.7520110
  62.3289730  14.2362690  41.2268630  60.9853350  14.2281920  40.5294010
  64.8694960  14.0664040  36.0260390  65.0645590  14.9647490  36.2927820
  64.0824830  13.8351120  36.5193340  55.2484560  15.1499950  38.1182090
  54.6187300  14.4487260  38.2852220  54.7089700  15.9104080  37.9015250
  66.4221570  31.3064750  37.7866950  66.5973760  30.6202490  37.1427870
  65.7243140  31.8311800  37.3943620  55.3740120  14.4283930  50.5534580
  55.0924390  14.9317530  49.7895400  55.7559820  13.6305680  50.1876710
  54.2649220  31.6959590  35.3402260  54.9968040  31.4118870  34.7926150
  54.5242890  31.4572870  36.2301640  61.9755580  13.8437510  51.1315050
  61.8621030  14.1632120  52.0266570  62.7925320  14.2450020  50.8352330
  64.7554070  30.9909040  50.6133740  65.5479390  30.4958270  50.4059700
  65.0487220  31.6699180  51.2209350  60.8813730  21.8629980  21.4949790
  60.8007780  20.9484590  21.2241500  60.4678150  22.3597050  20.7889500
  59.0131770  23.6409000  23.3759060  58.2373870  23.1609440  23.6657630
  59.6644700  22.9614650  23.2015220  53.0297600  23.9528810  24.2534820
  52.1982480  23.6977520  24.6531330  53.6378580  24.0239580  24.9892740
  63.0339200  28.0469190  22.1558190  62.5720730  27.2756430  22.4845360
  63.8464750  28.0735260  22.6610640  53.0098860  27.9868900  24.4492840
  53.3126900  27.0966640  24.2703060  53.7542450  28.5439120  24.2215090
  51.4389550  18.9130700  18.0377210  50.5506250  19.2546670  17.9357090
  51.7230740  18.7131020  17.1458040  49.4022560  21.5136350  23.9216910
  49.9738670  20.7458550  23.9220550  49.4024100  21.8125110  23.0123520
  59.2602510  30.3327200  21.7762180  58.6413950  30.7884700  21.2056620
  60.1154290  30.4878660  21.3751880  58.4540760  26.3166190  23.3829220
  58.3849040  25.3756130  23.2218350  59.2160620  26.4067600  23.9551790
  50.6447430  16.9220710  25.7085840  50.4650270  16.0246460  25.9888600
  50.2427510  17.4692580  26.3832790  59.4845930  19.1236570  23.6098150
  59.8610750  18.2508450  23.4971820  59.3865440  19.4595270  22.7188590
  53.6150940  17.4962200  19.0715590  53.7217690  18.3965930  19.3784350
  52.7043300  17.4480170  18.7810240  63.2670050  16.6187010  20.5426490
  64.0879670  16.1283580  20.5851970  63.3004130  17.2084670  21.2958330
  51.2634100  19.4181210  24.3168180  51.9444210  19.6819580  24.9355580
  50.9482150  18.5782080  24.6506190  55.4558670  20.4648570  23.4040770
  55.9636890  20.9629540  24.0445790  55.9871910  19.6883770  23.2280130
  67.5569600  18.6353760  27.1070120  66.8521770  19.0235470  26.5885230
  67.8227520  19.3304050  27.7091050  53.7394770  15.1047130  27.6704190
  53.7413210  15.6219520  26.8650090  52.9099080  14.6277310  27.6474120
  60.1265860  25.2166440  19.1694090  59.5083130  25.6815890  18.6056810
  60.6389110  25.9093920  19.5863600  54.9897620  24.7442310  25.8477690
  54.6567000  25.3711230  26.4898760  55.1664300  25.2704190  25.0679360
  63.5031530  18.5587390  23.3154030  62.7987100  18.8472280  23.8957140
  63.8643690  19.3687500  22.9553590  53.4210100  16.8157090  25.6774640
  53.7626910  17.6599140  25.3828510  52.4825910  16.9640830  25.7939980
  54.2016720  26.7123110  27.6626870  54.8190720  27.3874190  27.3811320
  53.3409840  27.1211090  27.5714370  49.4949060  25.9022970  16.5433720
  49.1177040  26.3910070  15.8118620  49.7522130  26.5748250  17.1740250
  65.1194310  28.1762520  25.5781510  64.4357830  28.8461630  25.5698180
  65.6588600  28.3743170  24.8126370  66.5718450  18.0042180  23.7063240
  65.6243360  18.0381160  23.8378670  66.8968440  18.8181130  24.0912600
  57.1037990  14.3039360  22.0019230  57.4112970  13.7486250  21.2854730
  56.1738690  14.4383820  21.8192220  62.6553050  30.0206650  24.2926690
  62.6680210  29.6168940  23.4248950  62.1028270  30.7953940  24.1888120
  63.9498470  26.7422870  19.3816860  63.8394800  25.7997200  19.5066280
  63.9466720  27.1038510  20.2679620  62.0538490  24.9236490  25.6209300
  62.4707280  24.7096600  24.7862760  62.7778310  25.1809280  26.1917920
  59.4918750  22.3688190  18.7379350  58.5648030  22.3025570  18.9667820
  59.6443570  23.3068320  18.6234590  59.4787830  18.6405190  15.7346510
  58.5391500  18.8019150  15.8198970  59.7971090  19.3590870  15.1882500
  66.0000590  23.3223710  25.7125540  65.1719220  23.3916800  25.2375670
  66.5951070  23.9078020  25.2441370  63.5216040  23.9308490  19.2414600
  62.9028460  23.5928040  18.5940900  63.5040490  23.2868250  19.9493790
  62.9642600  20.1093030  26.6580410  62.5513780  20.9346740  26.9120400
  62.2318550  19.5238070  26.4656770  55.0975390  22.8952930  21.5199080
  54.6932390  22.1830180  21.0244980  55.1838510  22.5506170  22.4087120
  55.5657090  26.5820490  23.6838290  55.2685380  25.9765960  23.0046070
  56.5156910  26.6197800  23.5727650  53.8104010  19.6696140  25.2998120
  54.3618600  19.7791480  24.5251370  54.3247520  20.0433740  26.0153350
  63.6542700  30.1552360  27.3461390  63.1773260  30.9624550  27.1534000
  62.9704490  29.5030690  27.4987600  61.6980740  23.1695300  16.2487350
  62.1374020  22.3317730  16.1025170  62.4109160  23.8024700  16.3351490
  59.8076120  28.1091370  20.2168590  60.2472030  28.8515700  19.8023980
  59.7463010  28.3517940  21.1407550  55.2827090  29.1337200  31.1188610
  55.2542520  29.5380150  30.2517040  55.1192060  28.2047560  30.9560210
  65.2797880  14.4238110  14.5628390  64.9670540  14.5164940  15.4627460
  66.0410350  15.0019140  14.5125820  51.7980020  21.7897910  19.0205730
  51.6777620  22.5160000  18.4087000  51.4880910  21.0200820  18.5433640
  67.2341910  29.9164300  32.4152780  67.7101630  30.3947190  33.0941860
  67.8549070  29.8481790  31.6898280  49.4365390  24.9613050  24.8274370
  49.5145810  25.0961820  23.8830090  50.0507070  24.2528940  25.0202490
  50.6813020  26.6613240  21.2380550  50.2741100  26.8027830  20.3834150
  51.5726030  26.3773400  21.0351760  66.6375160  27.1077150  29.5752790
  66.7638220  26.8689030  28.6569970  66.6796540  26.2761690  30.0474870
  60.4991900  30.8105150  28.1447600  61.0136570  30.7213160  28.9470030
  59.6560980  31.1564850  28.4375510  62.4746300  31.0960490  17.5731600
  62.3147440  30.8063430  18.4713430  62.3093010  30.3200620  17.0376830
  54.9534680  30.8759020  19.3503220  54.7777160  29.9594560  19.1371020
  54.0990420  31.2346310  19.5901020  62.1772430  28.6048050  16.1329600
  61.4837590  28.6025340  15.4731880  62.9195290  28.1807370  15.7023770
  61.7422360  30.2310760  20.2078090  62.1979310  29.4500140  20.5216710
  62.0814880  30.9417580  20.7519270  66.4899170  19.1609610  30.5402530
  65.8743440  19.6689280  30.0117990  66.1695590  18.2607940  30.4828470
  54.2643680  15.1332980  22.4029400  53.8211830  15.9142520  22.0713920
  54.8228670  15.4562870  23.1100340  58.5513490  18.0001500  28.0064720
  58.0892860  18.2084520  28.8184660  58.1491600  17.1860850  27.7035390
  63.5518000  19.2210450  29.1361380  62.7011590  18.9216200  29.4570450
  63.3919790  19.4652460  28.2245200  60.6467710  20.7212200  31.2360170
  60.9721120  19.8875950  30.8962400  61.4348040  21.2440720  31.3838500
  57.3802500  14.7543680  17.2835230  56.7556680  14.7503550  18.0088540
  57.2932620  13.8874640  16.8871200  56.3019580  15.6780310  24.2619000
  56.5991910  16.5843140  24.1811020  56.8505140  15.1899090  23.6478570
  54.0557900  20.2566550  20.1310650  53.8298820  20.0403720  21.0357270
  53.2750430  20.6895010  19.7856620  61.2855660  20.2629920  18.7301300
  60.6864550  20.9865720  18.5464920  61.8335270  20.2006700  17.9477750
  56.4957110  21.1552130  30.7970920  56.4000710  20.2146860  30.6471320
  57.3389090  21.3767200  30.4018990  59.8920530  18.8993460  20.7604580
  60.2850100  19.2165660  19.9473270  60.2537380  18.0205340  20.8749100
  51.6267650  17.5665800  28.9504700  51.2331040  18.4141010  29.1577480
  50.9386050  16.9292170  29.1413340  58.2012700  17.6500770  32.0201440
  57.5111020  17.4572970  32.6547530  58.9445000  17.9335410  32.5525740
  48.9284700  15.4894260  22.9834780  48.6397750  16.0597120  23.6959760
  49.6730460  15.0098710  23.3466010  49.1154930  19.4314380  14.1937500
  49.0329600  20.3745140  14.3352490  48.7637990  19.2889290  13.3149850
  60.4775670  21.4899210  24.8555360  59.7456790  21.9986020  25.2045460
  60.0800010  20.6729190  24.5544140  56.9153060  18.1653410  23.2607850
  56.9189120  17.7243360  22.4112390  57.8104180  18.4870740  23.3679670
  52.7655440  18.0479900  22.2202060  52.4255490  18.5255130  22.9769110
  52.0032760  17.5945020  21.8603160  56.9773210  19.1665490  16.2514610
  57.0986030  19.1251970  17.2000430  56.5921720  20.0289640  16.0961340
  60.9401580  16.9432890  24.2678300  60.9574320  17.3941540  25.1120150
  60.6917160  16.0438530  24.4811740  55.9894710  21.4766630  15.6497910
  55.4211610  21.0284880  15.0233820  56.6983710  21.8359410  15.1163060
  64.3672330  14.3565070  30.1064680  64.6918100  13.6254730  30.6322660
  64.4028840  14.0378710  29.2045670  57.2161030  22.2255190  25.0073260
  57.5831160  21.7513760  25.7534600  57.0266090  23.0996760  25.3481600
  50.0801520  16.9698880  21.1366730  49.7948440  16.6054550  21.9745350
  50.0180380  16.2379340  20.5229870  55.0060400  21.2663830  27.3257470
  54.7017470  22.1455810  27.5507830  55.9606860  21.3263620  27.3614910
  53.5342190  25.4724820  17.9224320  52.7604450  24.9322440  17.7623040
  54.2636820  24.9531430  17.5842080  64.2930170  24.4690180  23.7150710
  65.0129290  24.9645470  23.3246820  64.0911990  23.7908070  23.0704580
  59.7540110  15.8628140  17.8580100  58.9404720  15.3641310  17.7825410
  59.5602060  16.7026390  17.4416450  59.6748970  24.5399240  29.6019710
  59.6086280  23.6194910  29.3477300  59.0454110  24.6374680  30.3164350
  62.4688500  20.2347790  16.1542260  63.3568120  20.5465020  15.9793600
  62.4393590  19.3620040  15.7622840  53.5779590  25.1405200  21.5603130
  54.0958260  24.3373460  21.5060020  53.1263610  25.0784340  22.4019960
  58.4649090  26.4071480  16.8330430  58.8064790  27.1513710  16.3373750
  57.6361800  26.7202600  17.1955260  54.2637250  22.5650810  31.3568380
  53.9637390  22.7107990  30.4596200  55.0348490  22.0056100  31.2641770
  59.6065700  27.3619810  29.3523510  59.6210240  26.4300770  29.1342420
  58.8990800  27.4479570  29.9913280  64.7402770  21.5459630  15.6222120
  64.6566490  21.9773850  14.7718560  65.4596960  22.0057980  16.0548940
  65.8176910  24.0027150  28.6992090  65.0925100  24.5955930  28.5021480
  66.3452370  23.9950690  27.9005460  65.7690020  28.4001890  18.3504250
  65.1266180  27.7457510  18.6247970  65.3820680  28.8056980  17.5744920
  61.3476500  25.7287320  22.1975940  61.7000320  25.1315450  21.5377310
  60.4638830  25.4031550  22.3684190  57.4339780  26.4885010  19.6046350
  58.1210910  27.0354220  19.9853940  56.6472200  27.0325740  19.6395960
  49.5732180  22.1057830  15.0963430  50.4427030  22.3882630  15.3799350
  49.0822500  22.9193700  14.9812240  56.7366990  23.4931040  19.2171710
  57.1929770  24.3036290  19.4431900  56.3855200  23.1754180  20.0490200
  59.0399600  29.0037380  26.4464010  59.6841820  29.2096760  27.1237430
  59.4029040  28.2425780  25.9934860  52.6378770  13.8368690  19.6894230
  52.5093400  13.8286590  20.6379150  51.8140790  14.1751780  19.3385240
  60.3131680  27.0069730  25.1641460  60.9553910  26.3062890  25.2773630
  60.8381030  27.7868170  24.9838350  64.1587400  27.2918350  14.8880600
  63.9324980  26.5748790  15.4805240  63.7683600  27.0430790  14.0502350
  62.0869300  27.8064630  28.3677520  62.4225540  28.3931320  29.0455440
  61.1669640  27.6757340  28.5975310  49.9403430  31.3185210  15.6625060
  50.3001070  31.9174550  15.0082330  49.7995770  31.8645100  16.4360090
  49.6372700  15.5959810  29.1500930  48.9231220  15.7956730  29.7553540
  50.0567740  14.8199380  29.5215730  63.7403650  25.2090290  16.5494760
  63.4525350  25.6702980  17.3372640  64.5355820  24.7488060  16.8178980
  49.9245290  29.5840070  30.1367460  50.0336410  28.6434810  29.9962850
  49.2725850  29.8494820  29.4881190  57.9157880  27.8555960  31.5365580
  57.5954750  27.1365200  32.0811270  57.2416240  28.5311030  31.6101640
  55.9572050  28.7016410  16.4798730  55.9482150  29.4346100  15.8643240
  55.0370410  28.4547990  16.5725690  51.5578690  23.9231300  17.2245490
  50.9506640  24.6630200  17.2340790  52.0328040  24.0130660  16.3983690
  61.1311480  18.0882120  26.9002380  61.4992300  17.2677330  27.2281950
  60.2709680  18.1484010  27.3158030  64.4973510  17.0439060  17.7089940
  63.8686670  17.1484730  16.9948170  64.0025430  17.2635840  18.4983820
  58.9431650  28.7644650  15.1423920  59.0443630  28.5608640  14.2125900
  58.0433390  28.5102930  15.3471700  56.4657540  19.3225010  19.1247820
  55.7573690  19.7911350  19.5661430  56.7502020  18.6647020  19.7593010
  58.0913470  20.7421710  27.1240350  58.5898720  21.2167530  27.7892200
  58.2336420  19.8185230  27.3310380  60.4972970  16.0475670  20.5643610
  60.3740750  16.0661800  19.6153120  61.4457530  16.0954610  20.6842010
  57.5849760  31.2830970  19.8371590  57.8391260  31.2452360  18.9150960
  56.6362240  31.1564300  19.8299840  54.6692560  17.6310090  16.4998530
  55.5183090  18.0680240  16.4338720  54.3023830  17.9430350  17.3270590
  65.2980330  16.9589670  27.9668740  64.7953930  17.6995070  28.3062550
  66.1136990  17.3473670  27.6505530  63.5902340  22.2022850  21.4130100
  62.6492480  22.2173080  21.5877790  63.9046410  21.4158810  21.8590400
  53.5683980  23.8842450  14.9734060  54.3347250  23.7723810  15.5359490
  53.6458670  23.1880420  14.3210830  52.2630740  21.3167520  15.6566950
  52.3434330  20.3695030  15.7684350  53.1550490  21.6474400  15.7627610
  65.5927920  29.3731700  23.0884360  65.7175340  30.1962870  23.5608170
  66.4593480  29.1622430  22.7408510  53.0645450  31.4662910  22.7601490
  53.8007930  30.9178370  23.0310060  53.4486370  32.3318920  22.6207480
  49.9490930  27.5336480  18.6343000  49.0230710  27.7757620  18.6248410
  50.4147360  28.3610740  18.5127750  52.0703730  30.6508980  31.9487070
  52.8716460  30.9721030  32.3622470  51.5555550  30.2904560  32.6706980
  56.1747760  30.6393220  14.5827060  56.9676370  30.9282050  14.1308850
  55.6552110  30.2085390  13.9039540  60.9068360  26.7588850  31.8962480
  60.3006520  26.7820450  31.1558230  60.6022470  26.0271890  32.4329730
  62.3368730  30.4869140  30.5071890  63.2890480  30.4027160  30.4572130
  62.1896950  31.1510850  31.1805680  65.2277930  29.8663350  16.0063800
  64.9419440  29.4528490  15.1917980  65.0297480  30.7951060  15.8864320
  56.6925160  25.8596630  14.4469410  56.5875800  25.2448980  15.1730790
  56.5249380  25.3362520  13.6632420  56.8439480  24.5453430  30.4258640
  56.0785150  25.1138430  30.3413310  57.0255440  24.2529640  29.5326870
  59.9327890  24.9216660  15.0511400  59.3837990  25.3685960  15.6954140
  60.5547150  24.4165910  15.5749070  63.9862830  26.2758760  30.9833660
  64.7272300  26.6134520  30.4801120  63.2235510  26.4450820  30.4303430
  55.6003010  23.8807580  16.9476700  56.0219430  23.7147450  17.7908090
  55.7253850  23.0707810  16.4531840  53.7630430  19.8604130  29.7547680
  53.2326890  19.3695080  29.1271020  54.4318500  20.2888330  29.2205610
  58.1130650  22.9045190  14.1953800  58.6336310  22.1894210  13.8294950
  58.7599050  23.5431060  14.4954310  62.6608490  24.3273590  29.5188870
  63.0749510  24.4818670  30.3679290  61.7259490  24.4528810  29.6814650
  63.1330660  21.6669750  31.5228020  63.7151430  20.9122070  31.4348500
  63.3092430  22.1977190  30.7459500  54.2502730  16.8266500  29.8344970
  54.1559600  16.2087250  29.1095840  53.6700120  17.5532790  29.6074880
  57.0164170  15.3839740  26.8672360  56.5681470  15.4064000  26.0217910
  56.3829370  14.9858760  27.4642660  57.4223720  24.2794070  27.4884800
  57.8411830  25.1226800  27.3161040  56.5032350  24.4166110  27.2591580
  59.7587620  22.0110250  28.8722640  59.8783830  21.4151390  29.6117480
  60.6181620  22.0479940  28.4523940  62.0975520  22.5647440  27.4485150
  61.5710740  23.0890060  26.8450290  62.4406860  23.1974830  28.0794880
  54.4961910  19.9540810  13.8934860  54.2950970  19.0908170  14.2548200
  54.3253960  19.8674170  12.9556460  55.2731140  30.5847080  28.6042530
  54.7352230  31.3093140  28.2851230  55.5265100  30.1077420  27.8139870
  56.5256390  18.5531600  30.1298460  57.1156080  18.2447450  30.8176280
  55.7076630  18.0811350  30.2858360  61.3449820  18.1697410  30.3631480
  60.6565340  17.5078950  30.2981470  62.0655840  17.7235680  30.8079940
  61.9750220  14.7649040  16.4221740  62.2552510  13.9216940  16.7781160
  61.2015950  14.9972150  16.9360490  53.2944710  17.0541430  13.8812740
  53.5970610  17.0608860  12.9731890  54.0339300  16.7039290  14.3780400
  58.1293350  31.8198290  28.8629180  58.0552050  32.7233430  29.1701550
  57.2272190  31.5010190  28.8351250  56.5129640  15.9976050  14.8668940
  56.1651640  15.3200040  14.2871390  56.7142410  15.5365560  15.6812330
  58.6778680  30.9856800  16.4855540  59.5729470  31.3241770  16.5074300
  58.7096310  30.2636210  15.8579820  52.3174840  26.3583850  14.7142540
  52.7549710  26.9013520  15.3700120  52.8022570  25.5330800  14.7238880
  49.5320640  29.1472880  22.1662800  49.8623650  28.2793940  21.9341440
  49.9611640  29.3531400  22.9967760  54.1282560  27.4781890  19.8264770
  53.8278100  27.3546860  20.7268680  54.0220050  26.6190480  19.4180500
  50.0210850  30.0143470  24.9044430  49.5841840  30.1944270  25.7368580
  50.5888530  30.7718090  24.7626150  65.6573030  29.5160470  29.1921740
  65.0575020  29.5753030  28.4485660  65.7866930  28.5765450  29.3218590
  66.8974480  27.2578290  14.5291450  66.0667440  27.3254940  14.9998680
  67.0746310  28.1482410  14.2258310  66.3530940  24.0025770  17.0325650
  67.1149850  24.5722420  17.1385340  66.3685310  23.4352970  17.8033960
  49.8535280  22.5263700  21.2633310  49.1984120  22.2575340  20.6193010
  50.6913230  22.4168180  20.8135290  67.3590910  24.8575870  21.8767580
  67.7299740  24.0743190  21.4703550  67.9992840  25.5464970  21.6984880
  64.3424670  26.2412450  27.2897900  63.5284510  26.6709610  27.5523690
  64.7498870  26.8530860  26.6766950  66.4050110  24.2960140  14.1898170
  66.6798950  25.2039020  14.0617390  66.2160850  24.2322670  15.1260160
  62.8025720  17.3204990  15.4851800  63.2210600  17.1335970  14.6448460
  62.4961780  16.4684040  15.7954730  66.3015450  22.2329130  19.1827600
  65.9259050  21.4657060  18.7508890  65.5718570  22.6151830  19.6702530
  50.8911210  22.9116270  25.8036650  51.2584250  22.8243670  26.6832670
  50.3222030  22.1482820  25.7043510  65.6915070  21.3800650  28.8167120
  65.4601160  21.1513400  27.9165070  65.9519620  22.3000200  28.7712010
  50.4427210  19.8225360  29.7095070  49.5483260  19.7892120  30.0488780
  50.9824760  20.0212150  30.4746320  64.1303140  16.6057080  31.5946820
  65.0073320  16.6140480  31.9780820  64.1423980  15.8687920  30.9839170
  49.0673360  19.7362630  17.2058640  48.1637440  19.9992830  17.0310300
  49.5513980  20.0073800  16.4258600  65.5766410  20.4586620  22.4834840
  66.1003890  19.9649270  21.8525010  66.1625830  20.5936980  23.2282410
  65.7556130  20.5426490  26.0054390  64.8058840  20.5090030  26.1199380
  65.9369140  21.4526600  25.7704160  51.6100570  18.7928170  15.1153020
  52.3192270  18.3711390  14.6300300  50.8940510  18.8603400  14.4836370
  51.2574730  14.8467500  14.1555670  51.9802860  15.3876440  14.4736890
  51.5299250  14.5730920  13.2797210  65.0666380  19.7159970  18.4227250
  65.5625500  19.4830840  19.2076130  64.8682450  18.8771810  18.0064890
  50.9466920  14.0973690  24.0578290  51.5943110  13.5471070  23.6173450
  51.3668760  14.3516840  24.8794100  66.4953540  18.3520920  20.9564930
  66.3852820  18.1976960  21.8947200  67.2561130  17.8241860  20.7140340
  64.8419260  14.2915050  27.4147930  65.4791480  14.9049190  27.7807120
  64.9894150  14.3275710  26.4697160  67.3843810  16.1828840  14.1971070
  68.3093120  16.0510020  13.9889360  67.3619600  16.2621660  15.1507520
  67.4582300  16.9539500  16.8227780  66.6633800  16.8884620  17.3520690
  67.6625580  17.8890140  16.8113130  64.4000720  30.9931050  20.8166170
  64.9959790  30.6715620  20.1400590  64.6578870  30.5202870  21.6079440
  50.6998920  14.2529360  26.8003610  50.3513740  14.7093180  27.5661790
  50.3686620  13.3586490  26.8826040  56.0069320  28.9808550  26.5666520
  55.7660680  29.2483110  25.6797040  56.9471960  29.1514280  26.6217380
  58.2123740  15.4441240  30.3223030  58.1512630  16.0363070  31.0718440
  59.1524120  15.3367200  30.1773290  60.8498300  15.1011300  29.9615320
  61.4638710  15.4190590  29.2996400  61.3947860  14.6159890  30.5811180
  67.2673480  31.0002930  27.3677160  66.7731760  31.3971800  26.6504290
  66.6586770  30.3752140  27.7614440  51.3719560  13.7805560  30.0754380
  51.9202550  13.5993610  29.3120490  51.4374870  12.9899670  30.6110690
  52.1451320  30.3711210  28.0854580  51.5511640  30.2395910  28.8244620
  52.1375160  29.5349350  27.6196680  61.5906340  13.6643440  26.2884610
  60.7166180  13.9978550  26.0857540  61.4817090  13.1916620  27.1136480
  62.4978320  15.8714310  27.6726330  62.1691680  15.0566070  27.2928060
  63.4460620  15.8284120  27.5492020  64.9512930  31.6426350  24.6463900
  64.4915900  32.3942160  24.2721920  64.3225390  30.9232820  24.5878700
  51.7763550  27.7369590  27.0362620  51.0497610  27.1174880  26.9688570
  51.8372700  28.1310200  26.1660700  55.3808650  29.9514590  23.8212030
  55.8973670  29.3401950  23.2960290  56.0306030  30.4543370  24.3123040
  58.1204150  30.8423080  24.6481010  58.4081960  30.5877380  23.7714020
  58.6327370  30.2900440  25.2386580  59.3381160  14.5813280  25.2277520
  58.5552950  15.0558780  25.5074280  59.0444090  13.6768110  25.1190700
  63.8902230  15.2836380  23.2726610  64.3310320  15.2281480  22.4248210
  63.6209820  16.1994390  23.3436790  65.7540800  14.9151620  21.2835430
  65.6929200  13.9712840  21.1366450  66.5332830  15.0231710  21.8288890
  50.0593550  31.0543980  20.2459380  49.8915590  30.4214660  20.9441270
  49.1928060  31.2603380  19.8953570  50.6821570  14.8860760  17.7491240
  51.4400930  14.9989640  17.1755270  50.2198740  15.7229960  17.7034670
  57.2235380  17.0000030  20.7393550  56.4109890  16.6256920  20.3989430
  57.7277020  16.2445110  21.0414740  61.7260360  13.6642480  21.9776620
  62.3289730  14.2362690  22.4525140  60.9853350  14.2281920  21.7550520
  64.8694960  14.0664040  17.2516900  65.0645590  14.9647490  17.5184330
  64.0824830  13.8351120  17.7449850  51.6656250  29.7477210  17.6909520
  51.1403870  30.1285240  16.9871480  51.5900830  30.3727980  18.4119230
  53.0546720  15.4124810  16.2893210  53.5839480  14.6254610  16.1601160
  53.6875040  16.0916000  16.5228740  55.2484560  15.1499950  19.3438600
  54.6187300  14.4487260  19.5108730  54.7089700  15.9104080  19.1271760
  58.1876510  31.7639180  32.0149210  59.1143820  31.5283450  32.0585170
  58.1726940  32.5911180  31.5335240  66.4221570  31.3064750  19.0123460
  66.5973760  30.6202490  18.3684380  65.7243140  31.8311800  18.6200130
  55.3740120  14.4283930  31.7791090  55.0924390  14.9317530  31.0151910
  55.7559820  13.6305680  31.4133220  54.2649220  31.6959590  16.5658770
  54.9968040  31.4118870  16.0182660  54.5242890  31.4572870  17.4558150
  53.4264010  27.8124320  16.5705100  52.7972890  28.2809420  17.1190930
  53.5411840  26.9673540  17.0051290  61.9755580  13.8437510  32.3571560
  61.8621030  14.1632120  33.2523080  62.7925320  14.2450020  32.0608840
  64.7554070  30.9909040  31.8390250  65.5479390  30.4958270  31.6316210
  65.0487220  31.6699180  32.4465860  60.8813730  21.8629980   2.7206300
  60.8007780  20.9484590   2.4498010  60.4678150  22.3597050   2.0146010
  59.0131770  23.6409000   4.6015570  58.2373870  23.1609440   4.8914140
  59.6644700  22.9614650   4.4271730  53.0297600  23.9528810   5.4791330
  52.1982480  23.6977520   5.8787840  53.6378580  24.0239580   6.2149250
  63.0339200  28.0469190   3.3814700  62.5720730  27.2756430   3.7101870
  63.8464750  28.0735260   3.8867150  53.0098860  27.9868900   5.6749350
  53.3126900  27.0966640   5.4959570  53.7542450  28.5439120   5.4471600
  49.4022560  21.5136350   5.1473420  49.9738670  20.7458550   5.1477060
  49.4024100  21.8125110   4.2380030  59.2602510  30.3327200   3.0018690
  58.6413950  30.7884700   2.4313130  60.1154290  30.4878660   2.6008390
  58.4540760  26.3166190   4.6085730  58.3849040  25.3756130   4.4474860
  59.2160620  26.4067600   5.1808300  50.6447430  16.9220710   6.9342350
  50.4650270  16.0246460   7.2145110  50.2427510  17.4692580   7.6089300
  59.4845930  19.1236570   4.8354660  59.8610750  18.2508450   4.7228330
  59.3865440  19.4595270   3.9445100  63.2670050  16.6187010   1.7683000
  64.0879670  16.1283580   1.8108480  63.3004130  17.2084670   2.5214840
  51.2634100  19.4181210   5.5424690  51.9444210  19.6819580   6.1612090
  50.9482150  18.5782080   5.8762700  55.4558670  20.4648570   4.6297280
  55.9636890  20.9629540   5.2702300  55.9871910  19.6883770   4.4536640
  67.5569600  18.6353760   8.3326630  66.8521770  19.0235470   7.8141740
  67.8227520  19.3304050   8.9347560  53.7394770  15.1047130   8.8960700
  53.7413210  15.6219520   8.0906600  52.9099080  14.6277310   8.8730630
  54.9897620  24.7442310   7.0734200  54.6567000  25.3711230   7.7155270
  55.1664300  25.2704190   6.2935870  63.5031530  18.5587390   4.5410540
  62.7987100  18.8472280   5.1213650  63.8643690  19.3687500   4.1810100
  53.4210100  16.8157090   6.9031150  53.7626910  17.6599140   6.6085020
  52.4825910  16.9640830   7.0196490  54.2016720  26.7123110   8.8883380
  54.8190720  27.3874190   8.6067830  53.3409840  27.1211090   8.7970880
  65.1194310  28.1762520   6.8038020  64.4357830  28.8461630   6.7954690
  65.6588600  28.3743170   6.0382880  66.5718450  18.0042180   4.9319750
  65.6243360  18.0381160   5.0635180  66.8968440  18.8181130   5.3169110
  57.1037990  14.3039360   3.2275740  57.4112970  13.7486250   2.5111240
  56.1738690  14.4383820   3.0448730  62.6553050  30.0206650   5.5183200
  62.6680210  29.6168940   4.6505460  62.1028270  30.7953940   5.4144630
  62.0538490  24.9236490   6.8465810  62.4707280  24.7096600   6.0119270
  62.7778310  25.1809280   7.4174430  66.0000590  23.3223710   6.9382050
  65.1719220  23.3916800   6.4632180  66.5951070  23.9078020   6.4697880
  62.9642600  20.1093030   7.8836920  62.5513780  20.9346740   8.1376910
  62.2318550  19.5238070   7.6913280  55.0975390  22.8952930   2.7455590
  54.6932390  22.1830180   2.2501490  55.1838510  22.5506170   3.6343630
  55.5657090  26.5820490   4.9094800  55.2685380  25.9765960   4.2302580
  56.5156910  26.6197800   4.7984160  53.8104010  19.6696140   6.5254630
  54.3618600  19.7791480   5.7507880  54.3247520  20.0433740   7.2409860
  63.6542700  30.1552360   8.5717900  63.1773260  30.9624550   8.3790510
  62.9704490  29.5030690   8.7244110  54.6575520  26.3202180  11.5602600
  53.7604050  26.5442150  11.8076000  54.6828390  26.4437120  10.6114000
  53.4846740  23.1915500  10.1359970  53.3454510  24.0638300  10.5047370
  52.6028100  22.8488310   9.9907910  55.2827090  29.1337200  12.3445120
  55.2542520  29.5380150  11.4773550  55.1192060  28.2047560  12.1816720
  67.2341910  29.9164300  13.6409290  67.7101630  30.3947190  14.3198370
  67.8549070  29.8481790  12.9154790  49.4365390  24.9613050   6.0530880
  49.5145810  25.0961820   5.1086600  50.0507070  24.2528940   6.2459000
  66.6375160  27.1077150  10.8009300  66.7638220  26.8689030   9.8826480
  66.6796540  26.2761690  11.2731380  60.4991900  30.8105150   9.3704110
  61.0136570  30.7213160  10.1726540  59.6560980  31.1564850   9.6632020
  66.4899170  19.1609610  11.7659040  65.8743440  19.6689280  11.2374500
  66.1695590  18.2607940  11.7084980  49.4924910  26.0027220   8.5925340
  49.6555950  25.5332580   7.7744710  49.9577360  25.4950780   9.2574180
  54.2643680  15.1332980   3.6285910  53.8211830  15.9142520   3.2970430
  54.8228670  15.4562870   4.3356850  58.5513490  18.0001500   9.2321230
  58.0892860  18.2084520  10.0441170  58.1491600  17.1860850   8.9291900
  63.5518000  19.2210450  10.3617890  62.7011590  18.9216200  10.6826960
  63.3919790  19.4652460   9.4501710  60.6467710  20.7212200  12.4616680
  60.9721120  19.8875950  12.1218910  61.4348040  21.2440720  12.6095010
  56.3019580  15.6780310   5.4875510  56.5991910  16.5843140   5.4067530
  56.8505140  15.1899090   4.8735080  56.4957110  21.1552130  12.0227430
  56.4000710  20.2146860  11.8727830  57.3389090  21.3767200  11.6275500
  51.6267650  17.5665800  10.1761210  51.2331040  18.4141010  10.3833990
  50.9386050  16.9292170  10.3669850  58.2012700  17.6500770  13.2457950
  57.5111020  17.4572970  13.8804040  58.9445000  17.9335410  13.7782250
  48.9284700  15.4894260   4.2091290  48.6397750  16.0597120   4.9216270
  49.6730460  15.0098710   4.5722520  60.4775670  21.4899210   6.0811870
  59.7456790  21.9986020   6.4301970  60.0800010  20.6729190   5.7800650
  56.9153060  18.1653410   4.4864360  56.9189120  17.7243360   3.6368900
  57.8104180  18.4870740   4.5936180  52.7655440  18.0479900   3.4458570
  52.4255490  18.5255130   4.2025620  52.0032760  17.5945020   3.0859670
  60.9401580  16.9432890   5.4934810  60.9574320  17.3941540   6.3376660
  60.6917160  16.0438530   5.7068250  64.3672330  14.3565070  11.3321190
  64.6918100  13.6254730  11.8579170  64.4028840  14.0378710  10.4302180
  51.0663890  25.3778650  10.7521150  50.6818680  24.7372320  11.3504110
  51.3776080  26.0814770  11.3215880  57.2161030  22.2255190   6.2329770
  57.5831160  21.7513760   6.9791110  57.0266090  23.0996760   6.5738110
  50.0801520  16.9698880   2.3623240  49.7948440  16.6054550   3.2001860
  50.0180380  16.2379340   1.7486380  55.0060400  21.2663830   8.5513980
  54.7017470  22.1455810   8.7764340  55.9606860  21.3263620   8.5871420
  64.2930170  24.4690180   4.9407220  65.0129290  24.9645470   4.5503330
  64.0911990  23.7908070   4.2961090  59.6748970  24.5399240  10.8276220
  59.6086280  23.6194910  10.5733810  59.0454110  24.6374680  11.5420860
  53.5779590  25.1405200   2.7859640  54.0958260  24.3373460   2.7316530
  53.1263610  25.0784340   3.6276470  51.0624130  22.1066570   9.6985340
  50.7039070  22.7720420  10.2858680  50.7678690  21.2750120  10.0697960
  54.2637250  22.5650810  12.5824890  53.9637390  22.7107990  11.6852710
  55.0348490  22.0056100  12.4898280  59.6065700  27.3619810  10.5780020
  59.6210240  26.4300770  10.3598930  58.8990800  27.4479570  11.2169790
  65.8176910  24.0027150   9.9248600  65.0925100  24.5955930   9.7277990
  66.3452370  23.9950690   9.1261970  61.3476500  25.7287320   3.4232450
  61.7000320  25.1315450   2.7633820  60.4638830  25.4031550   3.5940700
  59.0399600  29.0037380   7.6720520  59.6841820  29.2096760   8.3493940
  59.4029040  28.2425780   7.2191370  60.3131680  27.0069730   6.3897970
  60.9553910  26.3062890   6.5030140  60.8381030  27.7868170   6.2094860
  62.0869300  27.8064630   9.5934030  62.4225540  28.3931320  10.2711950
  61.1669640  27.6757340   9.8231820  49.6372700  15.5959810  10.3757440
  48.9231220  15.7956730  10.9810050  50.0567740  14.8199380  10.7472240
  49.9245290  29.5840070  11.3623970  50.0336410  28.6434810  11.2219360
  49.2725850  29.8494820  10.7137700  57.9157880  27.8555960  12.7622090
  57.5954750  27.1365200  13.3067780  57.2416240  28.5311030  12.8358150
  61.1311480  18.0882120   8.1258890  61.4992300  17.2677330   8.4538460
  60.2709680  18.1484010   8.5414540  58.0913470  20.7421710   8.3496860
  58.5898720  21.2167530   9.0148710  58.2336420  19.8185230   8.5566890
  65.2980330  16.9589670   9.1925250  64.7953930  17.6995070   9.5319060
  66.1136990  17.3473670   8.8762040  63.5902340  22.2022850   2.6386610
  62.6492480  22.2173080   2.8134300  63.9046410  21.4158810   3.0846910
  65.5927920  29.3731700   4.3140870  65.7175340  30.1962870   4.7864680
  66.4593480  29.1622430   3.9665020  53.0645450  31.4662910   3.9858000
  53.8007930  30.9178370   4.2566570  53.4486370  32.3318920   3.8463990
  52.0703730  30.6508980  13.1743580  52.8716460  30.9721030  13.5878980
  51.5555550  30.2904560  13.8963490  60.9068360  26.7588850  13.1218990
  60.3006520  26.7820450  12.3814740  60.6022470  26.0271890  13.6586240
  62.3368730  30.4869140  11.7328400  63.2890480  30.4027160  11.6828640
  62.1896950  31.1510850  12.4062190  49.7901540  23.1382440  12.1179630
  50.2940560  22.5589720  12.6895860  49.0508960  23.4222670  12.6556000
  56.8439480  24.5453430  11.6515150  56.0785150  25.1138430  11.5669820
  57.0255440  24.2529640  10.7583380  63.9862830  26.2758760  12.2090170
  64.7272300  26.6134520  11.7057630  63.2235510  26.4450820  11.6559940
  51.8224620  21.2812030  13.0129700  51.8629960  20.9825900  13.9214930
  52.6770120  21.6819640  12.8537220  53.7630430  19.8604130  10.9804190
  53.2326890  19.3695080  10.3527530  54.4318500  20.2888330  10.4462120
  62.6608490  24.3273590  10.7445380  63.0749510  24.4818670  11.5935800
  61.7259490  24.4528810  10.9071160  63.1330660  21.6669750  12.7484530
  63.7151430  20.9122070  12.6605010  63.3092430  22.1977190  11.9716010
  54.2502730  16.8266500  11.0601480  54.1559600  16.2087250  10.3352350
  53.6700120  17.5532790  10.8331390  57.0164170  15.3839740   8.0928870
  56.5681470  15.4064000   7.2474420  56.3829370  14.9858760   8.6899170
  57.4223720  24.2794070   8.7141310  57.8411830  25.1226800   8.5417550
  56.5032350  24.4166110   8.4848090  59.7587620  22.0110250  10.0979150
  59.8783830  21.4151390  10.8373990  60.6181620  22.0479940   9.6780450
  62.0975520  22.5647440   8.6741660  61.5710740  23.0890060   8.0706800
  62.4406860  23.1974830   9.3051390  55.2731140  30.5847080   9.8299040
  54.7352230  31.3093140   9.5107740  55.5265100  30.1077420   9.0396380
  56.5256390  18.5531600  11.3554970  57.1156080  18.2447450  12.0432790
  55.7076630  18.0811350  11.5114870  61.3449820  18.1697410  11.5887990
  60.6565340  17.5078950  11.5237980  62.0655840  17.7235680  12.0336450
  58.1293350  31.8198290  10.0885690  58.0552050  32.7233430  10.3958060
  57.2272190  31.5010190  10.0607760  49.5320640  29.1472880   3.3919310
  49.8623650  28.2793940   3.1597950  49.9611640  29.3531400   4.2224270
  50.0210850  30.0143470   6.1300940  49.5841840  30.1944270   6.9625090
  50.5888530  30.7718090   5.9882660  65.6573030  29.5160470  10.4178250
  65.0575020  29.5753030   9.6742170  65.7866930  28.5765450  10.5475100
  49.8535280  22.5263700   2.4889820  49.1984120  22.2575340   1.8449520
  50.6913230  22.4168180   2.0391800  67.3590910  24.8575870   3.1024090
  67.7299740  24.0743190   2.6960060  67.9992840  25.5464970   2.9241390
  64.3424670  26.2412450   8.5154410  63.5284510  26.6709610   8.7780200
  64.7498870  26.8530860   7.9023460  50.8911210  22.9116270   7.0293160
  51.2584250  22.8243670   7.9089180  50.3222030  22.1482820   6.9300020
  65.6915070  21.3800650  10.0423630  65.4601160  21.1513400   9.1421580
  65.9519620  22.3000200   9.9968520  50.4427210  19.8225360  10.9351580
  49.5483260  19.7892120  11.2745290  50.9824760  20.0212150  11.7002830
  64.1303140  16.6057080  12.8203330  65.0073320  16.6140480  13.2037330
  64.1423980  15.8687920  12.2095680  65.5766410  20.4586620   3.7091350
  66.1003890  19.9649270   3.0781520  66.1625830  20.5936980   4.4538920
  65.7556130  20.5426490   7.2310900  64.8058840  20.5090030   7.3455890
  65.9369140  21.4526600   6.9960670  50.9466920  14.0973690   5.2834800
  51.5943110  13.5471070   4.8429960  51.3668760  14.3516840   6.1050610
  66.4953540  18.3520920   2.1821440  66.3852820  18.1976960   3.1203710
  67.2561130  17.8241860   1.9396850  64.8419260  14.2915050   8.6404440
  65.4791480  14.9049190   9.0063630  64.9894150  14.3275710   7.6953670
  50.6998920  14.2529360   8.0260120  50.3513740  14.7093180   8.7918300
  50.3686620  13.3586490   8.1082550  52.3063290  27.4248960  12.1913310
  52.2632920  27.0541870  13.0727770  52.4374300  28.3626530  12.3315130
  56.0069320  28.9808550   7.7923030  55.7660680  29.2483110   6.9053550
  56.9471960  29.1514280   7.8473890  58.2123740  15.4441240  11.5479540
  58.1512630  16.0363070  12.2974950  59.1524120  15.3367200  11.4029800
  60.8498300  15.1011300  11.1871830  61.4638710  15.4190590  10.5252910
  61.3947860  14.6159890  11.8067690  67.2673480  31.0002930   8.5933670
  66.7731760  31.3971800   7.8760800  66.6586770  30.3752140   8.9870950
  51.3719560  13.7805560  11.3010890  51.9202550  13.5993610  10.5377000
  51.4374870  12.9899670  11.8367200  52.1451320  30.3711210   9.3111090
  51.5511640  30.2395910  10.0501130  52.1375160  29.5349350   8.8453190
  61.5906340  13.6643440   7.5141120  60.7166180  13.9978550   7.3114050
  61.4817090  13.1916620   8.3392990  62.4978320  15.8714310   8.8982840
  62.1691680  15.0566070   8.5184570  63.4460620  15.8284120   8.7748530
  64.9512930  31.6426350   5.8720410  64.4915900  32.3942160   5.4978430
  64.3225390  30.9232820   5.8135210  51.7763550  27.7369590   8.2619130
  51.0497610  27.1174880   8.1945080  51.8372700  28.1310200   7.3917210
  55.3808650  29.9514590   5.0468540  55.8973670  29.3401950   4.5216800
  56.0306030  30.4543370   5.5379550  58.1204150  30.8423080   5.8737520
  58.4081960  30.5877380   4.9970530  58.6327370  30.2900440   6.4643090
  59.3381160  14.5813280   6.4534030  58.5552950  15.0558780   6.7330790
  59.0444090  13.6768110   6.3447210  63.8902230  15.2836380   4.4983120
  64.3310320  15.2281480   3.6504720  63.6209820  16.1994390   4.5693300
  65.7540800  14.9151620   2.5091940  65.6929200  13.9712840   2.3622960
  66.5332830  15.0231710   3.0545400  61.7260360  13.6642480   3.2033130
  62.3289730  14.2362690   3.6781650  60.9853350  14.2281920   2.9807030
  58.1876510  31.7639180  13.2405720  59.1143820  31.5283450  13.2841680
  58.1726940  32.5911180  12.7591750  55.3740120  14.4283930  13.0047600
  55.0924390  14.9317530  12.2408420  55.7559820  13.6305680  12.6389730
  61.9755580  13.8437510  13.5828070  61.8621030  14.1632120  14.4779590
  62.7925320  14.2450020  13.2865350  64.7554070  30.9909040  13.0646760
  65.5479390  30.4958270  12.8572720  65.0487220  31.6699180  13.6722370
  60.8813730   3.0886490  77.8180260  60.8007780   2.1741100  77.5471970
  60.4678150   3.5853560  77.1119970  59.0131770   4.8665510  79.6989530
  58.2373870   4.3865950  79.9888100  59.6644700   4.1871160  79.5245690
  53.0297600   5.1785320  80.5765290  52.1982480   4.9234030  80.9761800
  53.6378580   5.2496090  81.3123210  63.0339200   9.2725700  78.4788660
  62.5720730   8.5012940  78.8075830  63.8464750   9.2991770  78.9841110
  53.0098860   9.2125410  80.7723310  53.3126900   8.3223150  80.5933530
  53.7542450   9.7695630  80.5445560  49.4022560   2.7392860  80.2447380
  49.9738670   1.9715060  80.2451020  49.4024100   3.0381620  79.3353990
  59.2602510  11.5583710  78.0992650  58.6413950  12.0141210  77.5287090
  60.1154290  11.7135170  77.6982350  58.4540760   7.5422700  79.7059690
  58.3849040   6.6012640  79.5448820  59.2160620   7.6324110  80.2782260
  60.1265860   6.4422950  75.4924560  59.5083130   6.9072400  74.9287280
  60.6389110   7.1350430  75.9094070  49.4949060   7.1279480  72.8664190
  49.1177040   7.6166580  72.1349090  49.7522130   7.8004760  73.4970720
  65.1194310   9.4019030  81.9011980  64.4357830  10.0718140  81.8928650
  65.6588600   9.5999680  81.1356840  62.6553050  11.2463160  80.6157160
  62.6680210  10.8425450  79.7479420  62.1028270  12.0210450  80.5118590
  63.9498470   7.9679380  75.7047330  63.8394800   7.0253710  75.8296750
  63.9466720   8.3295020  76.5910090  59.4918750   3.5944700  75.0609820
  58.5648030   3.5282080  75.2898290  59.6443570   4.5324830  74.9465060
  66.0000590   4.5480220  82.0356010  65.1719220   4.6173310  81.5606140
  66.5951070   5.1334530  81.5671840  63.5216040   5.1565000  75.5645070
  62.9028460   4.8184550  74.9171370  63.5040490   4.5124760  76.2724260
  55.0975390   4.1209440  77.8429550  54.6932390   3.4086690  77.3475450
  55.1838510   3.7762680  78.7317590  55.5657090   7.8077000  80.0068760
  55.2685380   7.2022470  79.3276540  56.5156910   7.8454310  79.8958120
  61.6980740   4.3951810  72.5717820  62.1374020   3.5574240  72.4255640
  62.4109160   5.0281210  72.6581960  59.8076120   9.3347880  76.5399060
  60.2472030  10.0772210  76.1254450  59.7463010   9.5774450  77.4638020
  51.7980020   3.0154420  75.3436200  51.6777620   3.7416510  74.7317470
  51.4880910   2.2457330  74.8664110  49.4365390   6.1869560  81.1504840
  49.5145810   6.3218330  80.2060560  50.0507070   5.4785450  81.3432960
  50.6813020   7.8869750  77.5611020  50.2741100   8.0284340  76.7064620
  51.5726030   7.6029910  77.3582230  62.4746300  12.3217000  73.8962070
  62.3147440  12.0319940  74.7943900  62.3093010  11.5457130  73.3607300
  54.9534680  12.1015530  75.6733690  54.7777160  11.1851070  75.4601490
  54.0990420  12.4602820  75.9131490  62.1772430   9.8304560  72.4560070
  61.4837590   9.8281850  71.7962350  62.9195290   9.4063880  72.0254240
  61.7422360  11.4567270  76.5308560  62.1979310  10.6756650  76.8447180
  62.0814880  12.1674090  77.0749740  60.4775670   2.7155720  81.1785830
  59.7456790   3.2242530  81.5275930  60.0800010   1.8985700  80.8774610
  55.9894710   2.7023140  71.9728380  55.4211610   2.2541390  71.3464290
  56.6983710   3.0615920  71.4393530  53.5342190   6.6981330  74.2454790
  52.7604450   6.1578950  74.0853510  54.2636820   6.1787940  73.9072550
  64.2930170   5.6946690  80.0381180  65.0129290   6.1901980  79.6477290
  64.0911990   5.0164580  79.3935050  53.5779590   6.3661710  77.8833600
  54.0958260   5.5629970  77.8290490  53.1263610   6.3040850  78.7250430
  58.4649090   7.6327990  73.1560900  58.8064790   8.3770220  72.6604220
  57.6361800   7.9459110  73.5185730  64.7402770   2.7716140  71.9452590
  64.6566490   3.2030360  71.0949030  65.4596960   3.2314490  72.3779410
  65.7690020   9.6258400  74.6734720  65.1266180   8.9714020  74.9478440
  65.3820680  10.0313490  73.8975390  61.3476500   6.9543830  78.5206410
  61.7000320   6.3571960  77.8607780  60.4638830   6.6288060  78.6914660
  57.4339780   7.7141520  75.9276820  58.1210910   8.2610730  76.3084410
  56.6472200   8.2582250  75.9626430  49.5732180   3.3314340  71.4193900
  50.4427030   3.6139140  71.7029820  49.0822500   4.1450210  71.3042710
  56.7366990   4.7187550  75.5402180  57.1929770   5.5292800  75.7662370
  56.3855200   4.4010690  76.3720670  60.3131680   8.2326240  81.4871930
  60.9553910   7.5319400  81.6004100  60.8381030   9.0124680  81.3068820
  64.1587400   8.5174860  71.2111070  63.9324980   7.8005300  71.8035710
  63.7683600   8.2687300  70.3732820  49.9403430  12.5441720  71.9855530
  50.3001070  13.1431060  71.3312800  49.7995770  13.0901610  72.7590560
  63.7403650   6.4346800  72.8725230  63.4525350   6.8959490  73.6603110
  64.5355820   5.9744570  73.1409450  55.9572050   9.9272920  72.8029200
  55.9482150  10.6602610  72.1873710  55.0370410   9.6804500  72.8956160
  51.5578690   5.1487810  73.5475960  50.9506640   5.8886710  73.5571260
  52.0328040   5.2387170  72.7214160  58.9431650   9.9901160  71.4654390
  59.0443630   9.7865150  70.5356370  58.0433390   9.7359440  71.6702170
  57.5849760  12.5087480  76.1602060  57.8391260  12.4708870  75.2381430
  56.6362240  12.3820810  76.1530310  63.5902340   3.4279360  77.7360570
  62.6492480   3.4429590  77.9108260  63.9046410   2.6415320  78.1820870
  53.5683980   5.1098960  71.2964530  54.3347250   4.9980320  71.8589960
  53.6458670   4.4136930  70.6441300  65.5927920  10.5988210  79.4114830
  65.7175340  11.4219380  79.8838640  66.4593480  10.3878940  79.0638980
  53.0645450  12.6919420  79.0831960  53.8007930  12.1434880  79.3540530
  53.4486370  13.5575430  78.9437950  49.9490930   8.7592990  74.9573470
  49.0230710   9.0014130  74.9478880  50.4147360   9.5867250  74.8358220
  56.1747760  11.8649730  70.9057530  56.9676370  12.1538560  70.4539320
  55.6552110  11.4341900  70.2270010  65.2277930  11.0919860  72.3294270
  64.9419440  10.6785000  71.5148450  65.0297480  12.0207570  72.2094790
  56.6925160   7.0853140  70.7699880  56.5875800   6.4705490  71.4961260
  56.5249380   6.5619030  69.9862890  59.9327890   6.1473170  71.3741870
  59.3837990   6.5942470  72.0184610  60.5547150   5.6422420  71.8979540
  55.6003010   5.1064090  73.2707170  56.0219430   4.9403960  74.1138560
  55.7253850   4.2964320  72.7762310  58.1130650   4.1301700  70.5184270
  58.6336310   3.4150720  70.1525420  58.7599050   4.7687570  70.8184780
  58.6778680  12.2113310  72.8086010  59.5729470  12.5498280  72.8304770
  58.7096310  11.4892720  72.1810290  52.3174840   7.5840360  71.0373010
  52.7549710   8.1270030  71.6930590  52.8022570   6.7587310  71.0469350
  49.5320640  10.3729390  78.4893270  49.8623650   9.5050450  78.2571910
  49.9611640  10.5787910  79.3198230  54.1282560   8.7038400  76.1495240
  53.8278100   8.5803370  77.0499150  54.0220050   7.8446990  75.7410970
  66.8974480   8.4834800  70.8521920  66.0667440   8.5511450  71.3229150
  67.0746310   9.3738920  70.5488780  66.3530940   5.2282280  73.3556120
  67.1149850   5.7978930  73.4615810  66.3685310   4.6609480  74.1264430
  49.8535280   3.7520210  77.5863780  49.1984120   3.4831850  76.9423480
  50.6913230   3.6424690  77.1365760  67.3590910   6.0832380  78.1998050
  67.7299740   5.2999700  77.7934020  67.9992840   6.7721480  78.0215350
  66.4050110   5.5216650  70.5128640  66.6798950   6.4295530  70.3847860
  66.2160850   5.4579180  71.4490630  66.3015450   3.4585640  75.5058070
  65.9259050   2.6913570  75.0739360  65.5718570   3.8408340  75.9933000
  64.4000720  12.2187560  77.1396640  64.9959790  11.8972130  76.4631060
  64.6578870  11.7459380  77.9309910  64.9512930  12.8682860  80.9694370
  64.4915900  13.6198670  80.5952390  64.3225390  12.1489330  80.9109170
  55.3808650  11.1771100  80.1442500  55.8973670  10.5658460  79.6190760
  56.0306030  11.6799880  80.6353510  58.1204150  12.0679590  80.9711480
  58.4081960  11.8133890  80.0944490  58.6327370  11.5156950  81.5617050
  50.0593550  12.2800490  76.5689850  49.8915590  11.6471170  77.2671740
  49.1928060  12.4859890  76.2184040  51.6656250  10.9733720  74.0139990
  51.1403870  11.3541750  73.3101950  51.5900830  11.5984490  74.7349700
  66.4221570  12.5321260  75.3353930  66.5973760  11.8459000  74.6914850
  65.7243140  13.0568310  74.9430600  54.2649220  12.9216100  72.8889240
  54.9968040  12.6375380  72.3413130  54.5242890  12.6829380  73.7788620
  53.4264010   9.0380830  72.8935570  52.7972890   9.5065930  73.4421400
  53.5411840   8.1930050  73.3281760  60.8813730   3.0886490  59.0436770
  60.8007780   2.1741100  58.7728480  60.4678150   3.5853560  58.3376480
  59.0131770   4.8665510  60.9246040  58.2373870   4.3865950  61.2144610
  59.6644700   4.1871160  60.7502200  53.0297600   5.1785320  61.8021800
  52.1982480   4.9234030  62.2018310  53.6378580   5.2496090  62.5379720
  63.0339200   9.2725700  59.7045170  62.5720730   8.5012940  60.0332340
  63.8464750   9.2991770  60.2097620  53.0098860   9.2125410  61.9979820
  53.3126900   8.3223150  61.8190040  53.7542450   9.7695630  61.7702070
  49.4022560   2.7392860  61.4703890  49.9738670   1.9715060  61.4707530
  49.4024100   3.0381620  60.5610500  59.2602510  11.5583710  59.3249160
  58.6413950  12.0141210  58.7543600  60.1154290  11.7135170  58.9238860
  58.4540760   7.5422700  60.9316200  58.3849040   6.6012640  60.7705330
  59.2160620   7.6324110  61.5038770  60.1265860   6.4422950  56.7181070
  59.5083130   6.9072400  56.1543790  60.6389110   7.1350430  57.1350580
  54.9897620   5.9698820  63.3964670  54.6567000   6.5967740  64.0385740
  55.1664300   6.4960700  62.6166340  54.2016720   7.9379620  65.2113850
  54.8190720   8.6130700  64.9298300  53.3409840   8.3467600  65.1201350
  49.4949060   7.1279480  54.0920700  49.1177040   7.6166580  53.3605600
  49.7522130   7.8004760  54.7227230  65.1194310   9.4019030  63.1268490
  64.4357830  10.0718140  63.1185160  65.6588600   9.5999680  62.3613350
  62.6553050  11.2463160  61.8413670  62.6680210  10.8425450  60.9735930
  62.1028270  12.0210450  61.7375100  63.9498470   7.9679380  56.9303840
  63.8394800   7.0253710  57.0553260  63.9466720   8.3295020  57.8166600
  62.0538490   6.1493000  63.1696280  62.4707280   5.9353110  62.3349740
  62.7778310   6.4065790  63.7404900  59.4918750   3.5944700  56.2866330
  58.5648030   3.5282080  56.5154800  59.6443570   4.5324830  56.1721570
  66.0000590   4.5480220  63.2612520  65.1719220   4.6173310  62.7862650
  66.5951070   5.1334530  62.7928350  63.5216040   5.1565000  56.7901580
  62.9028460   4.8184550  56.1427880  63.5040490   4.5124760  57.4980770
  55.0975390   4.1209440  59.0686060  54.6932390   3.4086690  58.5731960
  55.1838510   3.7762680  59.9574100  55.5657090   7.8077000  61.2325270
  55.2685380   7.2022470  60.5533050  56.5156910   7.8454310  61.1214630
  63.6542700  11.3808870  64.8948370  63.1773260  12.1881060  64.7020980
  62.9704490  10.7287200  65.0474580  54.6575520   7.5458690  67.8833070
  53.7604050   7.7698660  68.1306470  54.6828390   7.6693630  66.9344470
  61.6980740   4.3951810  53.7974330  62.1374020   3.5574240  53.6512150
  62.4109160   5.0281210  53.8838470  53.4846740   4.4172010  66.4590440
  53.3454510   5.2894810  66.8277840  52.6028100   4.0744820  66.3138380
  59.8076120   9.3347880  57.7655570  60.2472030  10.0772210  57.3510960
  59.7463010   9.5774450  58.6894530  55.2827090  10.3593710  68.6675590
  55.2542520  10.7636660  67.8004020  55.1192060   9.4304070  68.5047190
  51.7980020   3.0154420  56.5692710  51.6777620   3.7416510  55.9573980
  51.4880910   2.2457330  56.0920620  67.2341910  11.1420810  69.9639760
  67.7101630  11.6203700  70.6428840  67.8549070  11.0738300  69.2385260
  49.4365390   6.1869560  62.3761350  49.5145810   6.3218330  61.4317070
  50.0507070   5.4785450  62.5689470  50.6813020   7.8869750  58.7867530
  50.2741100   8.0284340  57.9321130  51.5726030   7.6029910  58.5838740
  66.6375160   8.3333660  67.1239770  66.7638220   8.0945540  66.2056950
  66.6796540   7.5018200  67.5961850  60.4991900  12.0361660  65.6934580
  61.0136570  11.9469670  66.4957010  59.6560980  12.3821360  65.9862490
  62.4746300  12.3217000  55.1218580  62.3147440  12.0319940  56.0200410
  62.3093010  11.5457130  54.5863810  54.9534680  12.1015530  56.8990200
  54.7777160  11.1851070  56.6858000  54.0990420  12.4602820  57.1388000
  62.1772430   9.8304560  53.6816580  61.4837590   9.8281850  53.0218860
  62.9195290   9.4063880  53.2510750  61.7422360  11.4567270  57.7565070
  62.1979310  10.6756650  58.0703690  62.0814880  12.1674090  58.3006250
  49.4924910   7.2283730  64.9155810  49.6555950   6.7589090  64.0975180
  49.9577360   6.7207290  65.5804650  60.4775670   2.7155720  62.4042340
  59.7456790   3.2242530  62.7532440  60.0800010   1.8985700  62.1031120
  55.9894710   2.7023140  53.1984890  55.4211610   2.2541390  52.5720800
  56.6983710   3.0615920  52.6650040  51.0663890   6.6035160  67.0751620
  50.6818680   5.9628830  67.6734580  51.3776080   7.3071280  67.6446350
  57.2161030   3.4511700  62.5560240  57.5831160   2.9770270  63.3021580
  57.0266090   4.3253270  62.8968580  55.0060400   2.4920340  64.8744450
  54.7017470   3.3712320  65.0994810  55.9606860   2.5520130  64.9101890
  53.5342190   6.6981330  55.4711300  52.7604450   6.1578950  55.3110020
  54.2636820   6.1787940  55.1329060  64.2930170   5.6946690  61.2637690
  65.0129290   6.1901980  60.8733800  64.0911990   5.0164580  60.6191560
  59.6748970   5.7655750  67.1506690  59.6086280   4.8451420  66.8964280
  59.0454110   5.8631190  67.8651330  53.5779590   6.3661710  59.1090110
  54.0958260   5.5629970  59.0547000  53.1263610   6.3040850  59.9506940
  58.4649090   7.6327990  54.3817410  58.8064790   8.3770220  53.8860730
  57.6361800   7.9459110  54.7442240  51.0624130   3.3323080  66.0215810
  50.7039070   3.9976930  66.6089150  50.7678690   2.5006630  66.3928430
  54.2637250   3.7907320  68.9055360  53.9637390   3.9364500  68.0083180
  55.0348490   3.2312610  68.8128750  59.6065700   8.5876320  66.9010490
  59.6210240   7.6557280  66.6829400  58.8990800   8.6736080  67.5400260
  64.7402770   2.7716140  53.1709100  64.6566490   3.2030360  52.3205540
  65.4596960   3.2314490  53.6035920  65.8176910   5.2283660  66.2479070
  65.0925100   5.8212440  66.0508460  66.3452370   5.2207200  65.4492440
  65.7690020   9.6258400  55.8991230  65.1266180   8.9714020  56.1734950
  65.3820680  10.0313490  55.1231900  61.3476500   6.9543830  59.7462920
  61.7000320   6.3571960  59.0864290  60.4638830   6.6288060  59.9171170
  57.4339780   7.7141520  57.1533330  58.1210910   8.2610730  57.5340920
  56.6472200   8.2582250  57.1882940  49.5732180   3.3314340  52.6450410
  50.4427030   3.6139140  52.9286330  49.0822500   4.1450210  52.5299220
  56.7366990   4.7187550  56.7658690  57.1929770   5.5292800  56.9918880
  56.3855200   4.4010690  57.5977180  59.0399600  10.2293890  63.9950990
  59.6841820  10.4353270  64.6724410  59.4029040   9.4682290  63.5421840
  60.3131680   8.2326240  62.7128440  60.9553910   7.5319400  62.8260610
  60.8381030   9.0124680  62.5325330  64.1587400   8.5174860  52.4367580
  63.9324980   7.8005300  53.0292220  63.7683600   8.2687300  51.5989330
  62.0869300   9.0321140  65.9164500  62.4225540   9.6187830  66.5942420
  61.1669640   8.9013850  66.1462290  63.7403650   6.4346800  54.0981740
  63.4525350   6.8959490  54.8859620  64.5355820   5.9744570  54.3665960
  49.9245290  10.8096580  67.6854440  50.0336410   9.8691320  67.5449830
  49.2725850  11.0751330  67.0368170  57.9157880   9.0812470  69.0852560
  57.5954750   8.3621710  69.6298250  57.2416240   9.7567540  69.1588620
  55.9572050   9.9272920  54.0285710  55.9482150  10.6602610  53.4130220
  55.0370410   9.6804500  54.1212670  51.5578690   5.1487810  54.7732470
  50.9506640   5.8886710  54.7827770  52.0328040   5.2387170  53.9470670
  58.9431650   9.9901160  52.6910900  59.0443630   9.7865150  51.7612880
  58.0433390   9.7359440  52.8958680  57.5849760  12.5087480  57.3858570
  57.8391260  12.4708870  56.4637940  56.6362240  12.3820810  57.3786820
  63.5902340   3.4279360  58.9617080  62.6492480   3.4429590  59.1364770
  63.9046410   2.6415320  59.4077380  53.5683980   5.1098960  52.5221040
  54.3347250   4.9980320  53.0846470  53.6458670   4.4136930  51.8697810
  65.5927920  10.5988210  60.6371340  65.7175340  11.4219380  61.1095150
  66.4593480  10.3878940  60.2895490  53.0645450  12.6919420  60.3088470
  53.8007930  12.1434880  60.5797040  53.4486370  13.5575430  60.1694460
  49.9490930   8.7592990  56.1829980  49.0230710   9.0014130  56.1735390
  50.4147360   9.5867250  56.0614730  52.0703730  11.8765490  69.4974050
  52.8716460  12.1977540  69.9109450  51.5555550  11.5161070  70.2193960
  56.1747760  11.8649730  52.1314040  56.9676370  12.1538560  51.6795830
  55.6552110  11.4341900  51.4526520  60.9068360   7.9845360  69.4449460
  60.3006520   8.0076960  68.7045210  60.6022470   7.2528400  69.9816710
  62.3368730  11.7125650  68.0558870  63.2890480  11.6283670  68.0059110
  62.1896950  12.3767360  68.7292660  65.2277930  11.0919860  53.5550780
  64.9419440  10.6785000  52.7404960  65.0297480  12.0207570  53.4351300
  49.7901540   4.3638950  68.4410100  50.2940560   3.7846230  69.0126330
  49.0508960   4.6479180  68.9786470  56.6925160   7.0853140  51.9956390
  56.5875800   6.4705490  52.7217770  56.5249380   6.5619030  51.2119400
  56.8439480   5.7709940  67.9745620  56.0785150   6.3394940  67.8900290
  57.0255440   5.4786150  67.0813850  59.9327890   6.1473170  52.5998380
  59.3837990   6.5942470  53.2441120  60.5547150   5.6422420  53.1236050
  63.9862830   7.5015270  68.5320640  64.7272300   7.8391030  68.0288100
  63.2235510   7.6707330  67.9790410  51.8224620   2.5068540  69.3360170
  51.8629960   2.2082410  70.2445400  52.6770120   2.9076150  69.1767690
  55.6003010   5.1064090  54.4963680  56.0219430   4.9403960  55.3395070
  55.7253850   4.2964320  54.0018820  58.1130650   4.1301700  51.7440780
  58.6336310   3.4150720  51.3781930  58.7599050   4.7687570  52.0441290
  62.6608490   5.5530100  67.0675850  63.0749510   5.7075180  67.9166270
  61.7259490   5.6785320  67.2301630  63.1330660   2.8926260  69.0715000
  63.7151430   2.1378580  68.9835480  63.3092430   3.4233700  68.2946480
  57.4223720   5.5050580  65.0371780  57.8411830   6.3483310  64.8648020
  56.5032350   5.6422620  64.8078560  59.7587620   3.2366760  66.4209620
  59.8783830   2.6407900  67.1604460  60.6181620   3.2736450  66.0010920
  62.0975520   3.7903950  64.9972130  61.5710740   4.3146570  64.3937270
  62.4406860   4.4231340  65.6281860  55.2731140  11.8103590  66.1529510
  54.7352230  12.5349650  65.8338210  55.5265100  11.3333930  65.3626850
  58.1293350  13.0454800  66.4116160  58.0552050  13.9489940  66.7188530
  57.2272190  12.7266700  66.3838230  58.6778680  12.2113310  54.0342520
  59.5729470  12.5498280  54.0561280  58.7096310  11.4892720  53.4066800
  52.3174840   7.5840360  52.2629520  52.7549710   8.1270030  52.9187100
  52.8022570   6.7587310  52.2725860  49.5320640  10.3729390  59.7149780
  49.8623650   9.5050450  59.4828420  49.9611640  10.5787910  60.5454740
  54.1282560   8.7038400  57.3751750  53.8278100   8.5803370  58.2755660
  54.0220050   7.8446990  56.9667480  50.0210850  11.2399980  62.4531410
  49.5841840  11.4200780  63.2855560  50.5888530  11.9974600  62.3113130
  65.6573030  10.7416980  66.7408720  65.0575020  10.8009540  65.9972640
  65.7866930   9.8021960  66.8705570  66.8974480   8.4834800  52.0778430
  66.0667440   8.5511450  52.5485660  67.0746310   9.3738920  51.7745290
  66.3530940   5.2282280  54.5812630  67.1149850   5.7978930  54.6872320
  66.3685310   4.6609480  55.3520940  49.8535280   3.7520210  58.8120290
  49.1984120   3.4831850  58.1679990  50.6913230   3.6424690  58.3622270
  67.3590910   6.0832380  59.4254560  67.7299740   5.2999700  59.0190530
  67.9992840   6.7721480  59.2471860  64.3424670   7.4668960  64.8384880
  63.5284510   7.8966120  65.1010670  64.7498870   8.0787370  64.2253930
  66.4050110   5.5216650  51.7385150  66.6798950   6.4295530  51.6104370
  66.2160850   5.4579180  52.6747140  66.3015450   3.4585640  56.7314580
  65.9259050   2.6913570  56.2995870  65.5718570   3.8408340  57.2189510
  50.8911210   4.1372780  63.3523630  51.2584250   4.0500180  64.2319650
  50.3222030   3.3739330  63.2530490  65.6915070   2.6057160  66.3654100
  65.4601160   2.3769910  65.4652050  65.9519620   3.5256710  66.3198990
  65.7556130   1.7683000  63.5541370  64.8058840   1.7346540  63.6686360
  65.9369140   2.6783110  63.3191140  64.4000720  12.2187560  58.3653150
  64.9959790  11.8972130  57.6887570  64.6578870  11.7459380  59.1566420
  52.3063290   8.6505470  68.5143780  52.2632920   8.2798380  69.3958240
  52.4374300   9.5883040  68.6545600  56.0069320  10.2065060  64.1153500
  55.7660680  10.4739620  63.2284020  56.9471960  10.3770790  64.1704360
  67.2673480  12.2259440  64.9164140  66.7731760  12.6228310  64.1991270
  66.6586770  11.6008650  65.3101420  52.1451320  11.5967720  65.6341560
  51.5511640  11.4652420  66.3731600  52.1375160  10.7605860  65.1683660
  64.9512930  12.8682860  62.1950880  64.4915900  13.6198670  61.8208900
  64.3225390  12.1489330  62.1365680  51.7763550   8.9626100  64.5849600
  51.0497610   8.3431390  64.5175550  51.8372700   9.3566710  63.7147680
  55.3808650  11.1771100  61.3699010  55.8973670  10.5658460  60.8447270
  56.0306030  11.6799880  61.8610020  58.1204150  12.0679590  62.1967990
  58.4081960  11.8133890  61.3201000  58.6327370  11.5156950  62.7873560
  51.6656250  10.9733720  55.2396500  51.1403870  11.3541750  54.5358460
  51.5900830  11.5984490  55.9606210  58.1876510  12.9895690  69.5636190
  59.1143820  12.7539960  69.6072150  58.1726940  13.8167690  69.0822220
  66.4221570  12.5321260  56.5610440  66.5973760  11.8459000  55.9171360
  65.7243140  13.0568310  56.1687110  54.2649220  12.9216100  54.1145750
  54.9968040  12.6375380  53.5669640  54.5242890  12.6829380  55.0045130
  53.4264010   9.0380830  54.1192080  52.7972890   9.5065930  54.6677910
  53.5411840   8.1930050  54.5538270  64.7554070  12.2165550  69.3877230
  65.5479390  11.7214780  69.1803190  65.0487220  12.8955690  69.9952840
  60.8813730   3.0886490  40.2693280  60.8007780   2.1741100  39.9984990
  60.4678150   3.5853560  39.5632990  59.0131770   4.8665510  42.1502550
  58.2373870   4.3865950  42.4401120  59.6644700   4.1871160  41.9758710
  53.0297600   5.1785320  43.0278310  52.1982480   4.9234030  43.4274820
  53.6378580   5.2496090  43.7636230  63.0339200   9.2725700  40.9301680
  62.5720730   8.5012940  41.2588850  63.8464750   9.2991770  41.4354130
  53.0098860   9.2125410  43.2236330  53.3126900   8.3223150  43.0446550
  53.7542450   9.7695630  42.9958580  49.4022560   2.7392860  42.6960400
  49.9738670   1.9715060  42.6964040  49.4024100   3.0381620  41.7867010
  59.2602510  11.5583710  40.5505670  58.6413950  12.0141210  39.9800110
  60.1154290  11.7135170  40.1495370  58.4540760   7.5422700  42.1572710
  58.3849040   6.6012640  41.9961840  59.2160620   7.6324110  42.7295280
  60.1265860   6.4422950  37.9437580  59.5083130   6.9072400  37.3800300
  60.6389110   7.1350430  38.3607090  54.9897620   5.9698820  44.6221180
  54.6567000   6.5967740  45.2642250  55.1664300   6.4960700  43.8422850
  54.2016720   7.9379620  46.4370360  54.8190720   8.6130700  46.1554810
  53.3409840   8.3467600  46.3457860  49.4949060   7.1279480  35.3177210
  49.1177040   7.6166580  34.5862110  49.7522130   7.8004760  35.9483740
  65.1194310   9.4019030  44.3525000  64.4357830  10.0718140  44.3441670
  65.6588600   9.5999680  43.5869860  62.6553050  11.2463160  43.0670180
  62.6680210  10.8425450  42.1992440  62.1028270  12.0210450  42.9631610
  63.9498470   7.9679380  38.1560350  63.8394800   7.0253710  38.2809770
  63.9466720   8.3295020  39.0423110  62.0538490   6.1493000  44.3952790
  62.4707280   5.9353110  43.5606250  62.7778310   6.4065790  44.9661410
  59.4918750   3.5944700  37.5122840  58.5648030   3.5282080  37.7411310
  59.6443570   4.5324830  37.3978080  66.0000590   4.5480220  44.4869030
  65.1719220   4.6173310  44.0119160  66.5951070   5.1334530  44.0184860
  63.5216040   5.1565000  38.0158090  62.9028460   4.8184550  37.3684390
  63.5040490   4.5124760  38.7237280  55.0975390   4.1209440  40.2942570
  54.6932390   3.4086690  39.7988470  55.1838510   3.7762680  41.1830610
  55.5657090   7.8077000  42.4581780  55.2685380   7.2022470  41.7789560
  56.5156910   7.8454310  42.3471140  63.6542700  11.3808870  46.1204880
  63.1773260  12.1881060  45.9277490  62.9704490  10.7287200  46.2731090
  54.6575520   7.5458690  49.1089580  53.7604050   7.7698660  49.3562980
  54.6828390   7.6693630  48.1600980  61.6980740   4.3951810  35.0230840
  62.1374020   3.5574240  34.8768660  62.4109160   5.0281210  35.1094980
  53.4846740   4.4172010  47.6846950  53.3454510   5.2894810  48.0534350
  52.6028100   4.0744820  47.5394890  59.8076120   9.3347880  38.9912080
  60.2472030  10.0772210  38.5767470  59.7463010   9.5774450  39.9151040
  55.2827090  10.3593710  49.8932100  55.2542520  10.7636660  49.0260530
  55.1192060   9.4304070  49.7303700  51.7980020   3.0154420  37.7949220
  51.6777620   3.7416510  37.1830490  51.4880910   2.2457330  37.3177130
  67.2341910  11.1420810  51.1896270  67.7101630  11.6203700  51.8685350
  67.8549070  11.0738300  50.4641770  49.4365390   6.1869560  43.6017860
  49.5145810   6.3218330  42.6573580  50.0507070   5.4785450  43.7945980
  50.6813020   7.8869750  40.0124040  50.2741100   8.0284340  39.1577640
  51.5726030   7.6029910  39.8095250  66.6375160   8.3333660  48.3496280
  66.7638220   8.0945540  47.4313460  66.6796540   7.5018200  48.8218360
  60.4991900  12.0361660  46.9191090  61.0136570  11.9469670  47.7213520
  59.6560980  12.3821360  47.2119000  62.4746300  12.3217000  36.3475090
  62.3147440  12.0319940  37.2456920  62.3093010  11.5457130  35.8120320
  54.9534680  12.1015530  38.1246710  54.7777160  11.1851070  37.9114510
  54.0990420  12.4602820  38.3644510  62.1772430   9.8304560  34.9073090
  61.4837590   9.8281850  34.2475370  62.9195290   9.4063880  34.4767260
  61.7422360  11.4567270  38.9821580  62.1979310  10.6756650  39.2960200
  62.0814880  12.1674090  39.5262760  49.4924910   7.2283730  46.1412320
  49.6555950   6.7589090  45.3231690  49.9577360   6.7207290  46.8061160
  60.4775670   2.7155720  43.6298850  59.7456790   3.2242530  43.9788950
  60.0800010   1.8985700  43.3287630  55.9894710   2.7023140  34.4241400
  55.4211610   2.2541390  33.7977310  56.6983710   3.0615920  33.8906550
  51.0663890   6.6035160  48.3008130  50.6818680   5.9628830  48.8991090
  51.3776080   7.3071280  48.8702860  57.2161030   3.4511700  43.7816750
  57.5831160   2.9770270  44.5278090  57.0266090   4.3253270  44.1225090
  55.0060400   2.4920340  46.1000960  54.7017470   3.3712320  46.3251320
  55.9606860   2.5520130  46.1358400  53.5342190   6.6981330  36.6967810
  52.7604450   6.1578950  36.5366530  54.2636820   6.1787940  36.3585570
  64.2930170   5.6946690  42.4894200  65.0129290   6.1901980  42.0990310
  64.0911990   5.0164580  41.8448070  59.6748970   5.7655750  48.3763200
  59.6086280   4.8451420  48.1220790  59.0454110   5.8631190  49.0907840
  53.5779590   6.3661710  40.3346620  54.0958260   5.5629970  40.2803510
  53.1263610   6.3040850  41.1763450  58.4649090   7.6327990  35.6073920
  58.8064790   8.3770220  35.1117240  57.6361800   7.9459110  35.9698750
  51.0624130   3.3323080  47.2472320  50.7039070   3.9976930  47.8345660
  50.7678690   2.5006630  47.6184940  54.2637250   3.7907320  50.1311870
  53.9637390   3.9364500  49.2339690  55.0348490   3.2312610  50.0385260
  59.6065700   8.5876320  48.1267000  59.6210240   7.6557280  47.9085910
  58.8990800   8.6736080  48.7656770  64.7402770   2.7716140  34.3965610
  64.6566490   3.2030360  33.5462050  65.4596960   3.2314490  34.8292430
  65.8176910   5.2283660  47.4735580  65.0925100   5.8212440  47.2764970
  66.3452370   5.2207200  46.6748950  65.7690020   9.6258400  37.1247740
  65.1266180   8.9714020  37.3991460  65.3820680  10.0313490  36.3488410
  61.3476500   6.9543830  40.9719430  61.7000320   6.3571960  40.3120800
  60.4638830   6.6288060  41.1427680  57.4339780   7.7141520  38.3789840
  58.1210910   8.2610730  38.7597430  56.6472200   8.2582250  38.4139450
  49.5732180   3.3314340  33.8706920  50.4427030   3.6139140  34.1542840
  49.0822500   4.1450210  33.7555730  56.7366990   4.7187550  37.9915200
  57.1929770   5.5292800  38.2175390  56.3855200   4.4010690  38.8233690
  59.0399600  10.2293890  45.2207500  59.6841820  10.4353270  45.8980920
  59.4029040   9.4682290  44.7678350  60.3131680   8.2326240  43.9384950
  60.9553910   7.5319400  44.0517120  60.8381030   9.0124680  43.7581840
  64.1587400   8.5174860  33.6624090  63.9324980   7.8005300  34.2548730
  63.7683600   8.2687300  32.8245840  62.0869300   9.0321140  47.1421010
  62.4225540   9.6187830  47.8198930  61.1669640   8.9013850  47.3718800
  49.9403430  12.5441720  34.4368550  50.3001070  13.1431060  33.7825820
  49.7995770  13.0901610  35.2103580  63.7403650   6.4346800  35.3238250
  63.4525350   6.8959490  36.1116130  64.5355820   5.9744570  35.5922470
  49.9245290  10.8096580  48.9110950  50.0336410   9.8691320  48.7706340
  49.2725850  11.0751330  48.2624680  57.9157880   9.0812470  50.3109070
  57.5954750   8.3621710  50.8554760  57.2416240   9.7567540  50.3845130
  55.9572050   9.9272920  35.2542220  55.9482150  10.6602610  34.6386730
  55.0370410   9.6804500  35.3469180  51.5578690   5.1487810  35.9988980
  50.9506640   5.8886710  36.0084280  52.0328040   5.2387170  35.1727180
  58.9431650   9.9901160  33.9167410  59.0443630   9.7865150  32.9869390
  58.0433390   9.7359440  34.1215190  57.5849760  12.5087480  38.6115080
  57.8391260  12.4708870  37.6894450  56.6362240  12.3820810  38.6043330
  63.5902340   3.4279360  40.1873590  62.6492480   3.4429590  40.3621280
  63.9046410   2.6415320  40.6333890  53.5683980   5.1098960  33.7477550
  54.3347250   4.9980320  34.3102980  53.6458670   4.4136930  33.0954320
  65.5927920  10.5988210  41.8627850  65.7175340  11.4219380  42.3351660
  66.4593480  10.3878940  41.5152000  53.0645450  12.6919420  41.5344980
  53.8007930  12.1434880  41.8053550  53.4486370  13.5575430  41.3950970
  49.9490930   8.7592990  37.4086490  49.0230710   9.0014130  37.3991900
  50.4147360   9.5867250  37.2871240  52.0703730  11.8765490  50.7230560
  52.8716460  12.1977540  51.1365960  51.5555550  11.5161070  51.4450470
  56.1747760  11.8649730  33.3570550  56.9676370  12.1538560  32.9052340
  55.6552110  11.4341900  32.6783030  60.9068360   7.9845360  50.6705970
  60.3006520   8.0076960  49.9301720  60.6022470   7.2528400  51.2073220
  62.3368730  11.7125650  49.2815380  63.2890480  11.6283670  49.2315620
  62.1896950  12.3767360  49.9549170  65.2277930  11.0919860  34.7807290
  64.9419440  10.6785000  33.9661470  65.0297480  12.0207570  34.6607810
  49.7901540   4.3638950  49.6666610  50.2940560   3.7846230  50.2382840
  49.0508960   4.6479180  50.2042980  56.6925160   7.0853140  33.2212900
  56.5875800   6.4705490  33.9474280  56.5249380   6.5619030  32.4375910
  56.8439480   5.7709940  49.2002130  56.0785150   6.3394940  49.1156800
  57.0255440   5.4786150  48.3070360  59.9327890   6.1473170  33.8254890
  59.3837990   6.5942470  34.4697630  60.5547150   5.6422420  34.3492560
  63.9862830   7.5015270  49.7577150  64.7272300   7.8391030  49.2544610
  63.2235510   7.6707330  49.2046920  51.8224620   2.5068540  50.5616680
  51.8629960   2.2082410  51.4701910  52.6770120   2.9076150  50.4024200
  55.6003010   5.1064090  35.7220190  56.0219430   4.9403960  36.5651580
  55.7253850   4.2964320  35.2275330  58.1130650   4.1301700  32.9697290
  58.6336310   3.4150720  32.6038440  58.7599050   4.7687570  33.2697800
  62.6608490   5.5530100  48.2932360  63.0749510   5.7075180  49.1422780
  61.7259490   5.6785320  48.4558140  63.1330660   2.8926260  50.2971510
  63.7151430   2.1378580  50.2091990  63.3092430   3.4233700  49.5202990
  57.4223720   5.5050580  46.2628290  57.8411830   6.3483310  46.0904530
  56.5032350   5.6422620  46.0335070  59.7587620   3.2366760  47.6466130
  59.8783830   2.6407900  48.3860970  60.6181620   3.2736450  47.2267430
  62.0975520   3.7903950  46.2228640  61.5710740   4.3146570  45.6193780
  62.4406860   4.4231340  46.8538370  55.2731140  11.8103590  47.3786020
  54.7352230  12.5349650  47.0594720  55.5265100  11.3333930  46.5883360
  58.1293350  13.0454800  47.6372670  58.0552050  13.9489940  47.9445040
  57.2272190  12.7266700  47.6094740  58.6778680  12.2113310  35.2599030
  59.5729470  12.5498280  35.2817790  58.7096310  11.4892720  34.6323310
  52.3174840   7.5840360  33.4886030  52.7549710   8.1270030  34.1443610
  52.8022570   6.7587310  33.4982370  49.5320640  10.3729390  40.9406290
  49.8623650   9.5050450  40.7084930  49.9611640  10.5787910  41.7711250
  54.1282560   8.7038400  38.6008260  53.8278100   8.5803370  39.5012170
  54.0220050   7.8446990  38.1923990  50.0210850  11.2399980  43.6787920
  49.5841840  11.4200780  44.5112070  50.5888530  11.9974600  43.5369640
  65.6573030  10.7416980  47.9665230  65.0575020  10.8009540  47.2229150
  65.7866930   9.8021960  48.0962080  66.8974480   8.4834800  33.3034940
  66.0667440   8.5511450  33.7742170  67.0746310   9.3738920  33.0001800
  66.3530940   5.2282280  35.8069140  67.1149850   5.7978930  35.9128830
  66.3685310   4.6609480  36.5777450  49.8535280   3.7520210  40.0376800
  49.1984120   3.4831850  39.3936500  50.6913230   3.6424690  39.5878780
  67.3590910   6.0832380  40.6511070  67.7299740   5.2999700  40.2447040
  67.9992840   6.7721480  40.4728370  64.3424670   7.4668960  46.0641390
  63.5284510   7.8966120  46.3267180  64.7498870   8.0787370  45.4510440
  66.4050110   5.5216650  32.9641660  66.6798950   6.4295530  32.8360880
  66.2160850   5.4579180  33.9003650  66.3015450   3.4585640  37.9571090
  65.9259050   2.6913570  37.5252380  65.5718570   3.8408340  38.4446020
  50.8911210   4.1372780  44.5780140  51.2584250   4.0500180  45.4576160
  50.3222030   3.3739330  44.4787000  65.6915070   2.6057160  47.5910610
  65.4601160   2.3769910  46.6908560  65.9519620   3.5256710  47.5455500
  65.7556130   1.7683000  44.7797880  64.8058840   1.7346540  44.8942870
  65.9369140   2.6783110  44.5447650  64.4000720  12.2187560  39.5909660
  64.9959790  11.8972130  38.9144080  64.6578870  11.7459380  40.3822930
  52.3063290   8.6505470  49.7400290  52.2632920   8.2798380  50.6214750
  52.4374300   9.5883040  49.8802110  56.0069320  10.2065060  45.3410010
  55.7660680  10.4739620  44.4540530  56.9471960  10.3770790  45.3960870
  67.2673480  12.2259440  46.1420650  66.7731760  12.6228310  45.4247780
  66.6586770  11.6008650  46.5357930  52.1451320  11.5967720  46.8598070
  51.5511640  11.4652420  47.5988110  52.1375160  10.7605860  46.3940170
  64.9512930  12.8682860  43.4207390  64.4915900  13.6198670  43.0465410
  64.3225390  12.1489330  43.3622190  51.7763550   8.9626100  45.8106110
  51.0497610   8.3431390  45.7432060  51.8372700   9.3566710  44.9404190
  55.3808650  11.1771100  42.5955520  55.8973670  10.5658460  42.0703780
  56.0306030  11.6799880  43.0866530  58.1204150  12.0679590  43.4224500
  58.4081960  11.8133890  42.5457510  58.6327370  11.5156950  44.0130070
  50.0593550  12.2800490  39.0202870  49.8915590  11.6471170  39.7184760
  49.1928060  12.4859890  38.6697060  51.6656250  10.9733720  36.4653010
  51.1403870  11.3541750  35.7614970  51.5900830  11.5984490  37.1862720
  58.1876510  12.9895690  50.7892700  59.1143820  12.7539960  50.8328660
  58.1726940  13.8167690  50.3078730  66.4221570  12.5321260  37.7866950
  66.5973760  11.8459000  37.1427870  65.7243140  13.0568310  37.3943620
  54.2649220  12.9216100  35.3402260  54.9968040  12.6375380  34.7926150
  54.5242890  12.6829380  36.2301640  53.4264010   9.0380830  35.3448590
  52.7972890   9.5065930  35.8934420  53.5411840   8.1930050  35.7794780
  64.7554070  12.2165550  50.6133740  65.5479390  11.7214780  50.4059700
  65.0487220  12.8955690  51.2209350  60.8813730   3.0886490  21.4949790
  60.8007780   2.1741100  21.2241500  60.4678150   3.5853560  20.7889500
  59.0131770   4.8665510  23.3759060  58.2373870   4.3865950  23.6657630
  59.6644700   4.1871160  23.2015220  53.0297600   5.1785320  24.2534820
  52.1982480   4.9234030  24.6531330  53.6378580   5.2496090  24.9892740
  63.0339200   9.2725700  22.1558190  62.5720730   8.5012940  22.4845360
  63.8464750   9.2991770  22.6610640  53.0098860   9.2125410  24.4492840
  53.3126900   8.3223150  24.2703060  53.7542450   9.7695630  24.2215090
  49.4022560   2.7392860  23.9216910  49.9738670   1.9715060  23.9220550
  49.4024100   3.0381620  23.0123520  59.2602510  11.5583710  21.7762180
  58.6413950  12.0141210  21.2056620  60.1154290  11.7135170  21.3751880
  58.4540760   7.5422700  23.3829220  58.3849040   6.6012640  23.2218350
  59.2160620   7.6324110  23.9551790  60.1265860   6.4422950  19.1694090
  59.5083130   6.9072400  18.6056810  60.6389110   7.1350430  19.5863600
  54.9897620   5.9698820  25.8477690  54.6567000   6.5967740  26.4898760
  55.1664300   6.4960700  25.0679360  54.2016720   7.9379620  27.6626870
  54.8190720   8.6130700  27.3811320  53.3409840   8.3467600  27.5714370
  49.4949060   7.1279480  16.5433720  49.1177040   7.6166580  15.8118620
  49.7522130   7.8004760  17.1740250  65.1194310   9.4019030  25.5781510
  64.4357830  10.0718140  25.5698180  65.6588600   9.5999680  24.8126370
  62.6553050  11.2463160  24.2926690  62.6680210  10.8425450  23.4248950
  62.1028270  12.0210450  24.1888120  63.9498470   7.9679380  19.3816860
  63.8394800   7.0253710  19.5066280  63.9466720   8.3295020  20.2679620
  62.0538490   6.1493000  25.6209300  62.4707280   5.9353110  24.7862760
  62.7778310   6.4065790  26.1917920  59.4918750   3.5944700  18.7379350
  58.5648030   3.5282080  18.9667820  59.6443570   4.5324830  18.6234590
  66.0000590   4.5480220  25.7125540  65.1719220   4.6173310  25.2375670
  66.5951070   5.1334530  25.2441370  63.5216040   5.1565000  19.2414600
  62.9028460   4.8184550  18.5940900  63.5040490   4.5124760  19.9493790
  55.0975390   4.1209440  21.5199080  54.6932390   3.4086690  21.0244980
  55.1838510   3.7762680  22.4087120  55.5657090   7.8077000  23.6838290
  55.2685380   7.2022470  23.0046070  56.5156910   7.8454310  23.5727650
  63.6542700  11.3808870  27.3461390  63.1773260  12.1881060  27.1534000
  62.9704490  10.7287200  27.4987600  54.6575520   7.5458690  30.3346090
  53.7604050   7.7698660  30.5819490  54.6828390   7.6693630  29.3857490
  61.6980740   4.3951810  16.2487350  62.1374020   3.5574240  16.1025170
  62.4109160   5.0281210  16.3351490  53.4846740   4.4172010  28.9103460
  53.3454510   5.2894810  29.2790860  52.6028100   4.0744820  28.7651400
  59.8076120   9.3347880  20.2168590  60.2472030  10.0772210  19.8023980
  59.7463010   9.5774450  21.1407550  55.2827090  10.3593710  31.1188610
  55.2542520  10.7636660  30.2517040  55.1192060   9.4304070  30.9560210
  51.7980020   3.0154420  19.0205730  51.6777620   3.7416510  18.4087000
  51.4880910   2.2457330  18.5433640  67.2341910  11.1420810  32.4152780
  67.7101630  11.6203700  33.0941860  67.8549070  11.0738300  31.6898280
  49.4365390   6.1869560  24.8274370  49.5145810   6.3218330  23.8830090
  50.0507070   5.4785450  25.0202490  50.6813020   7.8869750  21.2380550
  50.2741100   8.0284340  20.3834150  51.5726030   7.6029910  21.0351760
  66.6375160   8.3333660  29.5752790  66.7638220   8.0945540  28.6569970
  66.6796540   7.5018200  30.0474870  60.4991900  12.0361660  28.1447600
  61.0136570  11.9469670  28.9470030  59.6560980  12.3821360  28.4375510
  62.4746300  12.3217000  17.5731600  62.3147440  12.0319940  18.4713430
  62.3093010  11.5457130  17.0376830  54.9534680  12.1015530  19.3503220
  54.7777160  11.1851070  19.1371020  54.0990420  12.4602820  19.5901020
  62.1772430   9.8304560  16.1329600  61.4837590   9.8281850  15.4731880
  62.9195290   9.4063880  15.7023770  61.7422360  11.4567270  20.2078090
  62.1979310  10.6756650  20.5216710  62.0814880  12.1674090  20.7519270
  49.4924910   7.2283730  27.3668830  49.6555950   6.7589090  26.5488200
  49.9577360   6.7207290  28.0317670  60.4775670   2.7155720  24.8555360
  59.7456790   3.2242530  25.2045460  60.0800010   1.8985700  24.5544140
  55.9894710   2.7023140  15.6497910  55.4211610   2.2541390  15.0233820
  56.6983710   3.0615920  15.1163060  51.0663890   6.6035160  29.5264640
  50.6818680   5.9628830  30.1247600  51.3776080   7.3071280  30.0959370
  57.2161030   3.4511700  25.0073260  57.5831160   2.9770270  25.7534600
  57.0266090   4.3253270  25.3481600  55.0060400   2.4920340  27.3257470
  54.7017470   3.3712320  27.5507830  55.9606860   2.5520130  27.3614910
  53.5342190   6.6981330  17.9224320  52.7604450   6.1578950  17.7623040
  54.2636820   6.1787940  17.5842080  64.2930170   5.6946690  23.7150710
  65.0129290   6.1901980  23.3246820  64.0911990   5.0164580  23.0704580
  59.6748970   5.7655750  29.6019710  59.6086280   4.8451420  29.3477300
  59.0454110   5.8631190  30.3164350  53.5779590   6.3661710  21.5603130
  54.0958260   5.5629970  21.5060020  53.1263610   6.3040850  22.4019960
  58.4649090   7.6327990  16.8330430  58.8064790   8.3770220  16.3373750
  57.6361800   7.9459110  17.1955260  51.0624130   3.3323080  28.4728830
  50.7039070   3.9976930  29.0602170  50.7678690   2.5006630  28.8441450
  54.2637250   3.7907320  31.3568380  53.9637390   3.9364500  30.4596200
  55.0348490   3.2312610  31.2641770  59.6065700   8.5876320  29.3523510
  59.6210240   7.6557280  29.1342420  58.8990800   8.6736080  29.9913280
  64.7402770   2.7716140  15.6222120  64.6566490   3.2030360  14.7718560
  65.4596960   3.2314490  16.0548940  65.8176910   5.2283660  28.6992090
  65.0925100   5.8212440  28.5021480  66.3452370   5.2207200  27.9005460
  65.7690020   9.6258400  18.3504250  65.1266180   8.9714020  18.6247970
  65.3820680  10.0313490  17.5744920  61.3476500   6.9543830  22.1975940
  61.7000320   6.3571960  21.5377310  60.4638830   6.6288060  22.3684190
  57.4339780   7.7141520  19.6046350  58.1210910   8.2610730  19.9853940
  56.6472200   8.2582250  19.6395960  49.5732180   3.3314340  15.0963430
  50.4427030   3.6139140  15.3799350  49.0822500   4.1450210  14.9812240
  56.7366990   4.7187550  19.2171710  57.1929770   5.5292800  19.4431900
  56.3855200   4.4010690  20.0490200  59.0399600  10.2293890  26.4464010
  59.6841820  10.4353270  27.1237430  59.4029040   9.4682290  25.9934860
  60.3131680   8.2326240  25.1641460  60.9553910   7.5319400  25.2773630
  60.8381030   9.0124680  24.9838350  64.1587400   8.5174860  14.8880600
  63.9324980   7.8005300  15.4805240  63.7683600   8.2687300  14.0502350
  62.0869300   9.0321140  28.3677520  62.4225540   9.6187830  29.0455440
  61.1669640   8.9013850  28.5975310  49.9403430  12.5441720  15.6625060
  50.3001070  13.1431060  15.0082330  49.7995770  13.0901610  16.4360090
  63.7403650   6.4346800  16.5494760  63.4525350   6.8959490  17.3372640
  64.5355820   5.9744570  16.8178980  49.9245290  10.8096580  30.1367460
  50.0336410   9.8691320  29.9962850  49.2725850  11.0751330  29.4881190
  57.9157880   9.0812470  31.5365580  57.5954750   8.3621710  32.0811270
  57.2416240   9.7567540  31.6101640  55.9572050   9.9272920  16.4798730
  55.9482150  10.6602610  15.8643240  55.0370410   9.6804500  16.5725690
  51.5578690   5.1487810  17.2245490  50.9506640   5.8886710  17.2340790
  52.0328040   5.2387170  16.3983690  58.9431650   9.9901160  15.1423920
  59.0443630   9.7865150  14.2125900  58.0433390   9.7359440  15.3471700
  57.5849760  12.5087480  19.8371590  57.8391260  12.4708870  18.9150960
  56.6362240  12.3820810  19.8299840  63.5902340   3.4279360  21.4130100
  62.6492480   3.4429590  21.5877790  63.9046410   2.6415320  21.8590400
  53.5683980   5.1098960  14.9734060  54.3347250   4.9980320  15.5359490
  53.6458670   4.4136930  14.3210830  65.5927920  10.5988210  23.0884360
  65.7175340  11.4219380  23.5608170  66.4593480  10.3878940  22.7408510
  53.0645450  12.6919420  22.7601490  53.8007930  12.1434880  23.0310060
  53.4486370  13.5575430  22.6207480  49.9490930   8.7592990  18.6343000
  49.0230710   9.0014130  18.6248410  50.4147360   9.5867250  18.5127750
  52.0703730  11.8765490  31.9487070  52.8716460  12.1977540  32.3622470
  51.5555550  11.5161070  32.6706980  56.1747760  11.8649730  14.5827060
  56.9676370  12.1538560  14.1308850  55.6552110  11.4341900  13.9039540
  60.9068360   7.9845360  31.8962480  60.3006520   8.0076960  31.1558230
  60.6022470   7.2528400  32.4329730  62.3368730  11.7125650  30.5071890
  63.2890480  11.6283670  30.4572130  62.1896950  12.3767360  31.1805680
  65.2277930  11.0919860  16.0063800  64.9419440  10.6785000  15.1917980
  65.0297480  12.0207570  15.8864320  49.7901540   4.3638950  30.8923120
  50.2940560   3.7846230  31.4639350  49.0508960   4.6479180  31.4299490
  56.6925160   7.0853140  14.4469410  56.5875800   6.4705490  15.1730790
  56.5249380   6.5619030  13.6632420  56.8439480   5.7709940  30.4258640
  56.0785150   6.3394940  30.3413310  57.0255440   5.4786150  29.5326870
  59.9327890   6.1473170  15.0511400  59.3837990   6.5942470  15.6954140
  60.5547150   5.6422420  15.5749070  63.9862830   7.5015270  30.9833660
  64.7272300   7.8391030  30.4801120  63.2235510   7.6707330  30.4303430
  51.8224620   2.5068540  31.7873190  51.8629960   2.2082410  32.6958420
  52.6770120   2.9076150  31.6280710  55.6003010   5.1064090  16.9476700
  56.0219430   4.9403960  17.7908090  55.7253850   4.2964320  16.4531840
  58.1130650   4.1301700  14.1953800  58.6336310   3.4150720  13.8294950
  58.7599050   4.7687570  14.4954310  62.6608490   5.5530100  29.5188870
  63.0749510   5.7075180  30.3679290  61.7259490   5.6785320  29.6814650
  63.1330660   2.8926260  31.5228020  63.7151430   2.1378580  31.4348500
  63.3092430   3.4233700  30.7459500  57.4223720   5.5050580  27.4884800
  57.8411830   6.3483310  27.3161040  56.5032350   5.6422620  27.2591580
  59.7587620   3.2366760  28.8722640  59.8783830   2.6407900  29.6117480
  60.6181620   3.2736450  28.4523940  62.0975520   3.7903950  27.4485150
  61.5710740   4.3146570  26.8450290  62.4406860   4.4231340  28.0794880
  55.2731140  11.8103590  28.6042530  54.7352230  12.5349650  28.2851230
  55.5265100  11.3333930  27.8139870  58.1293350  13.0454800  28.8629180
  58.0552050  13.9489940  29.1701550  57.2272190  12.7266700  28.8351250
  58.6778680  12.2113310  16.4855540  59.5729470  12.5498280  16.5074300
  58.7096310  11.4892720  15.8579820  52.3174840   7.5840360  14.7142540
  52.7549710   8.1270030  15.3700120  52.8022570   6.7587310  14.7238880
  49.5320640  10.3729390  22.1662800  49.8623650   9.5050450  21.9341440
  49.9611640  10.5787910  22.9967760  54.1282560   8.7038400  19.8264770
  53.8278100   8.5803370  20.7268680  54.0220050   7.8446990  19.4180500
  50.0210850  11.2399980  24.9044430  49.5841840  11.4200780  25.7368580
  50.5888530  11.9974600  24.7626150  65.6573030  10.7416980  29.1921740
  65.0575020  10.8009540  28.4485660  65.7866930   9.8021960  29.3218590
  66.8974480   8.4834800  14.5291450  66.0667440   8.5511450  14.9998680
  67.0746310   9.3738920  14.2258310  66.3530940   5.2282280  17.0325650
  67.1149850   5.7978930  17.1385340  66.3685310   4.6609480  17.8033960
  49.8535280   3.7520210  21.2633310  49.1984120   3.4831850  20.6193010
  50.6913230   3.6424690  20.8135290  67.3590910   6.0832380  21.8767580
  67.7299740   5.2999700  21.4703550  67.9992840   6.7721480  21.6984880
  64.3424670   7.4668960  27.2897900  63.5284510   7.8966120  27.5523690
  64.7498870   8.0787370  26.6766950  66.4050110   5.5216650  14.1898170
  66.6798950   6.4295530  14.0617390  66.2160850   5.4579180  15.1260160
  66.3015450   3.4585640  19.1827600  65.9259050   2.6913570  18.7508890
  65.5718570   3.8408340  19.6702530  50.8911210   4.1372780  25.8036650
  51.2584250   4.0500180  26.6832670  50.3222030   3.3739330  25.7043510
  65.6915070   2.6057160  28.8167120  65.4601160   2.3769910  27.9165070
  65.9519620   3.5256710  28.7712010  65.7556130   1.7683000  26.0054390
  64.8058840   1.7346540  26.1199380  65.9369140   2.6783110  25.7704160
  64.4000720  12.2187560  20.8166170  64.9959790  11.8972130  20.1400590
  64.6578870  11.7459380  21.6079440  52.3063290   8.6505470  30.9656800
  52.2632920   8.2798380  31.8471260  52.4374300   9.5883040  31.1058620
  56.0069320  10.2065060  26.5666520  55.7660680  10.4739620  25.6797040
  56.9471960  10.3770790  26.6217380  67.2673480  12.2259440  27.3677160
  66.7731760  12.6228310  26.6504290  66.6586770  11.6008650  27.7614440
  52.1451320  11.5967720  28.0854580  51.5511640  11.4652420  28.8244620
  52.1375160  10.7605860  27.6196680  64.9512930  12.8682860  24.6463900
  64.4915900  13.6198670  24.2721920  64.3225390  12.1489330  24.5878700
  51.7763550   8.9626100  27.0362620  51.0497610   8.3431390  26.9688570
  51.8372700   9.3566710  26.1660700  55.3808650  11.1771100  23.8212030
  55.8973670  10.5658460  23.2960290  56.0306030  11.6799880  24.3123040
  58.1204150  12.0679590  24.6481010  58.4081960  11.8133890  23.7714020
  58.6327370  11.5156950  25.2386580  50.0593550  12.2800490  20.2459380
  49.8915590  11.6471170  20.9441270  49.1928060  12.4859890  19.8953570
  51.6656250  10.9733720  17.6909520  51.1403870  11.3541750  16.9871480
  51.5900830  11.5984490  18.4119230  58.1876510  12.9895690  32.0149210
  59.1143820  12.7539960  32.0585170  58.1726940  13.8167690  31.5335240
  66.4221570  12.5321260  19.0123460  66.5973760  11.8459000  18.3684380
  65.7243140  13.0568310  18.6200130  54.2649220  12.9216100  16.5658770
  54.9968040  12.6375380  16.0182660  54.5242890  12.6829380  17.4558150
  53.4264010   9.0380830  16.5705100  52.7972890   9.5065930  17.1190930
  53.5411840   8.1930050  17.0051290  64.7554070  12.2165550  31.8390250
  65.5479390  11.7214780  31.6316210  65.0487220  12.8955690  32.4465860
  60.8813730   3.0886490   2.7206300  60.8007780   2.1741100   2.4498010
  60.4678150   3.5853560   2.0146010  59.0131770   4.8665510   4.6015570
  58.2373870   4.3865950   4.8914140  59.6644700   4.1871160   4.4271730
  53.0297600   5.1785320   5.4791330  52.1982480   4.9234030   5.8787840
  53.6378580   5.2496090   6.2149250  63.0339200   9.2725700   3.3814700
  62.5720730   8.5012940   3.7101870  63.8464750   9.2991770   3.8867150
  53.0098860   9.2125410   5.6749350  53.3126900   8.3223150   5.4959570
  53.7542450   9.7695630   5.4471600  49.4022560   2.7392860   5.1473420
  49.9738670   1.9715060   5.1477060  49.4024100   3.0381620   4.2380030
  59.2602510  11.5583710   3.0018690  58.6413950  12.0141210   2.4313130
  60.1154290  11.7135170   2.6008390  58.4540760   7.5422700   4.6085730
  58.3849040   6.6012640   4.4474860  59.2160620   7.6324110   5.1808300
  54.9897620   5.9698820   7.0734200  54.6567000   6.5967740   7.7155270
  55.1664300   6.4960700   6.2935870  54.2016720   7.9379620   8.8883380
  54.8190720   8.6130700   8.6067830  53.3409840   8.3467600   8.7970880
  65.1194310   9.4019030   6.8038020  64.4357830  10.0718140   6.7954690
  65.6588600   9.5999680   6.0382880  62.6553050  11.2463160   5.5183200
  62.6680210  10.8425450   4.6505460  62.1028270  12.0210450   5.4144630
  62.0538490   6.1493000   6.8465810  62.4707280   5.9353110   6.0119270
  62.7778310   6.4065790   7.4174430  66.0000590   4.5480220   6.9382050
  65.1719220   4.6173310   6.4632180  66.5951070   5.1334530   6.4697880
  55.0975390   4.1209440   2.7455590  54.6932390   3.4086690   2.2501490
  55.1838510   3.7762680   3.6343630  55.5657090   7.8077000   4.9094800
  55.2685380   7.2022470   4.2302580  56.5156910   7.8454310   4.7984160
  63.6542700  11.3808870   8.5717900  63.1773260  12.1881060   8.3790510
  62.9704490  10.7287200   8.7244110  54.6575520   7.5458690  11.5602600
  53.7604050   7.7698660  11.8076000  54.6828390   7.6693630  10.6114000
  53.4846740   4.4172010  10.1359970  53.3454510   5.2894810  10.5047370
  52.6028100   4.0744820   9.9907910  55.2827090  10.3593710  12.3445120
  55.2542520  10.7636660  11.4773550  55.1192060   9.4304070  12.1816720
  67.2341910  11.1420810  13.6409290  67.7101630  11.6203700  14.3198370
  67.8549070  11.0738300  12.9154790  49.4365390   6.1869560   6.0530880
  49.5145810   6.3218330   5.1086600  50.0507070   5.4785450   6.2459000
  66.6375160   8.3333660  10.8009300  66.7638220   8.0945540   9.8826480
  66.6796540   7.5018200  11.2731380  60.4991900  12.0361660   9.3704110
  61.0136570  11.9469670  10.1726540  59.6560980  12.3821360   9.6632020
  49.4924910   7.2283730   8.5925340  49.6555950   6.7589090   7.7744710
  49.9577360   6.7207290   9.2574180  60.4775670   2.7155720   6.0811870
  59.7456790   3.2242530   6.4301970  60.0800010   1.8985700   5.7800650
  51.0663890   6.6035160  10.7521150  50.6818680   5.9628830  11.3504110
  51.3776080   7.3071280  11.3215880  57.2161030   3.4511700   6.2329770
  57.5831160   2.9770270   6.9791110  57.0266090   4.3253270   6.5738110
  55.0060400   2.4920340   8.5513980  54.7017470   3.3712320   8.7764340
  55.9606860   2.5520130   8.5871420  64.2930170   5.6946690   4.9407220
  65.0129290   6.1901980   4.5503330  64.0911990   5.0164580   4.2961090
  59.6748970   5.7655750  10.8276220  59.6086280   4.8451420  10.5733810
  59.0454110   5.8631190  11.5420860  53.5779590   6.3661710   2.7859640
  54.0958260   5.5629970   2.7316530  53.1263610   6.3040850   3.6276470
  51.0624130   3.3323080   9.6985340  50.7039070   3.9976930  10.2858680
  50.7678690   2.5006630  10.0697960  54.2637250   3.7907320  12.5824890
  53.9637390   3.9364500  11.6852710  55.0348490   3.2312610  12.4898280
  59.6065700   8.5876320  10.5780020  59.6210240   7.6557280  10.3598930
  58.8990800   8.6736080  11.2169790  65.8176910   5.2283660   9.9248600
  65.0925100   5.8212440   9.7277990  66.3452370   5.2207200   9.1261970
  61.3476500   6.9543830   3.4232450  61.7000320   6.3571960   2.7633820
  60.4638830   6.6288060   3.5940700  59.0399600  10.2293890   7.6720520
  59.6841820  10.4353270   8.3493940  59.4029040   9.4682290   7.2191370
  60.3131680   8.2326240   6.3897970  60.9553910   7.5319400   6.5030140
  60.8381030   9.0124680   6.2094860  62.0869300   9.0321140   9.5934030
  62.4225540   9.6187830  10.2711950  61.1669640   8.9013850   9.8231820
  49.9245290  10.8096580  11.3623970  50.0336410   9.8691320  11.2219360
  49.2725850  11.0751330  10.7137700  57.9157880   9.0812470  12.7622090
  57.5954750   8.3621710  13.3067780  57.2416240   9.7567540  12.8358150
  63.5902340   3.4279360   2.6386610  62.6492480   3.4429590   2.8134300
  63.9046410   2.6415320   3.0846910  65.5927920  10.5988210   4.3140870
  65.7175340  11.4219380   4.7864680  66.4593480  10.3878940   3.9665020
  53.0645450  12.6919420   3.9858000  53.8007930  12.1434880   4.2566570
  53.4486370  13.5575430   3.8463990  52.0703730  11.8765490  13.1743580
  52.8716460  12.1977540  13.5878980  51.5555550  11.5161070  13.8963490
  60.9068360   7.9845360  13.1218990  60.3006520   8.0076960  12.3814740
  60.6022470   7.2528400  13.6586240  62.3368730  11.7125650  11.7328400
  63.2890480  11.6283670  11.6828640  62.1896950  12.3767360  12.4062190
  49.7901540   4.3638950  12.1179630  50.2940560   3.7846230  12.6895860
  49.0508960   4.6479180  12.6556000  56.8439480   5.7709940  11.6515150
  56.0785150   6.3394940  11.5669820  57.0255440   5.4786150  10.7583380
  63.9862830   7.5015270  12.2090170  64.7272300   7.8391030  11.7057630
  63.2235510   7.6707330  11.6559940  51.8224620   2.5068540  13.0129700
  51.8629960   2.2082410  13.9214930  52.6770120   2.9076150  12.8537220
  62.6608490   5.5530100  10.7445380  63.0749510   5.7075180  11.5935800
  61.7259490   5.6785320  10.9071160  63.1330660   2.8926260  12.7484530
  63.7151430   2.1378580  12.6605010  63.3092430   3.4233700  11.9716010
  57.4223720   5.5050580   8.7141310  57.8411830   6.3483310   8.5417550
  56.5032350   5.6422620   8.4848090  59.7587620   3.2366760  10.0979150
  59.8783830   2.6407900  10.8373990  60.6181620   3.2736450   9.6780450
  62.0975520   3.7903950   8.6741660  61.5710740   4.3146570   8.0706800
  62.4406860   4.4231340   9.3051390  55.2731140  11.8103590   9.8299040
  54.7352230  12.5349650   9.5107740  55.5265100  11.3333930   9.0396380
  58.1293350  13.0454800  10.0885690  58.0552050  13.9489940  10.3958060
  57.2272190  12.7266700  10.0607760  49.5320640  10.3729390   3.3919310
  49.8623650   9.5050450   3.1597950  49.9611640  10.5787910   4.2224270
  50.0210850  11.2399980   6.1300940  49.5841840  11.4200780   6.9625090
  50.5888530  11.9974600   5.9882660  65.6573030  10.7416980  10.4178250
  65.0575020  10.8009540   9.6742170  65.7866930   9.8021960  10.5475100
  49.8535280   3.7520210   2.4889820  49.1984120   3.4831850   1.8449520
  50.6913230   3.6424690   2.0391800  67.3590910   6.0832380   3.1024090
  67.7299740   5.2999700   2.6960060  67.9992840   6.7721480   2.9241390
  64.3424670   7.4668960   8.5154410  63.5284510   7.8966120   8.7780200
  64.7498870   8.0787370   7.9023460  50.8911210   4.1372780   7.0293160
  51.2584250   4.0500180   7.9089180  50.3222030   3.3739330   6.9300020
  65.6915070   2.6057160  10.0423630  65.4601160   2.3769910   9.1421580
  65.9519620   3.5256710   9.9968520  65.7556130   1.7683000   7.2310900
  64.8058840   1.7346540   7.3455890  65.9369140   2.6783110   6.9960670
  52.3063290   8.6505470  12.1913310  52.2632920   8.2798380  13.0727770
  52.4374300   9.5883040  12.3315130  56.0069320  10.2065060   7.7923030
  55.7660680  10.4739620   6.9053550  56.9471960  10.3770790   7.8473890
  67.2673480  12.2259440   8.5933670  66.7731760  12.6228310   7.8760800
  66.6586770  11.6008650   8.9870950  52.1451320  11.5967720   9.3111090
  51.5511640  11.4652420  10.0501130  52.1375160  10.7605860   8.8453190
  64.9512930  12.8682860   5.8720410  64.4915900  13.6198670   5.4978430
  64.3225390  12.1489330   5.8135210  51.7763550   8.9626100   8.2619130
  51.0497610   8.3431390   8.1945080  51.8372700   9.3566710   7.3917210
  55.3808650  11.1771100   5.0468540  55.8973670  10.5658460   4.5216800
  56.0306030  11.6799880   5.5379550  58.1204150  12.0679590   5.8737520
  58.4081960  11.8133890   4.9970530  58.6327370  11.5156950   6.4643090
  58.1876510  12.9895690  13.2405720  59.1143820  12.7539960  13.2841680
  58.1726940  13.8167690  12.7591750  64.7554070  12.2165550  13.0646760
  65.5479390  11.7214780  12.8572720  65.0487220  12.8955690  13.6722370
  42.1070240  78.1860450  77.8180260  42.0264290  77.2715060  77.5471970
  41.6934660  78.6827520  77.1119970  40.2388280  79.9639470  79.6989530
  39.4630380  79.4839910  79.9888100  40.8901210  79.2845120  79.5245690
  34.2554110  80.2759280  80.5765290  33.4238990  80.0207990  80.9761800
  34.8635090  80.3470050  81.3123210  32.6646060  75.2361170  74.3607680
  31.7762760  75.5777140  74.2587560  32.9487250  75.0361490  73.4688510
  30.6279070  77.8366820  80.2447380  31.1995180  77.0689020  80.2451020
  30.6280610  78.1355580  79.3353990  40.7102440  75.4467040  79.9328620
  41.0867260  74.5738920  79.8202290  40.6121950  75.7825740  79.0419060
  34.8407450  73.8192670  75.3946060  34.9474200  74.7196400  75.7014820
  33.9299810  73.7710640  75.1040710  44.4926560  72.9417480  76.8656960
  45.3136180  72.4514050  76.9082440  44.5260640  73.5315140  77.6188800
  32.4890610  75.7411680  80.6398650  33.1700720  76.0050050  81.2586050
  32.1738660  74.9012550  80.9736660  36.6815180  76.7879040  79.7271240
  37.1893400  77.2860010  80.3676260  37.2128420  76.0114240  79.5510600
  44.7288040  74.8817860  79.6384500  44.0243610  75.1702750  80.2187610
  45.0900200  75.6917970  79.2784060  47.7974960  74.3272650  80.0293710
  46.8499870  74.3611630  80.1609140  48.1224950  75.1411600  80.4143070
  38.3294500  70.6269830  78.3249700  38.6369480  70.0716720  77.6085200
  37.3995200  70.7614290  78.1422690  40.7175260  78.6918660  75.0609820
  39.7904540  78.6256040  75.2898290  40.8700080  79.6298790  74.9465060
  40.7044340  74.9635660  72.0576980  39.7648010  75.1249620  72.1429440
  41.0227600  75.6821340  71.5112970  47.2257100  79.6454180  82.0356010
  46.3975730  79.7147270  81.5606140  47.8207580  80.2308490  81.5671840
  44.7472550  80.2538960  75.5645070  44.1284970  79.9158510  74.9171370
  44.7297000  79.6098720  76.2724260  36.3231900  79.2183400  77.8429550
  35.9188900  78.5060650  77.3475450  36.4095020  78.8736640  78.7317590
  42.9237250  79.4925770  72.5717820  43.3630530  78.6548200  72.4255640
  43.6365670  80.1255170  72.6581960  46.5054390  70.7468580  70.8858860
  46.1927050  70.8395410  71.7857930  47.2666860  71.3249610  70.8356290
  33.0236530  78.1128380  75.3436200  32.9034130  78.8390470  74.7317470
  32.7137420  77.3431290  74.8664110  35.4900190  71.4563450  78.7259870
  35.0468340  72.2372990  78.3944390  36.0485180  71.7793340  79.4330810
  38.6059010  71.0774150  73.6065700  37.9813190  71.0734020  74.3319010
  38.5189130  70.2105110  73.2101670  37.5276090  72.0010780  80.5849470
  37.8248420  72.9073610  80.5041490  38.0761650  71.5129560  79.9709040
  35.2814410  76.5797020  76.4541120  35.0555330  76.3634190  77.3587740
  34.5006940  77.0125480  76.1087090  42.5112170  76.5860390  75.0531770
  41.9121060  77.3096190  74.8695390  43.0591780  76.5237170  74.2708220
  41.1177040  75.2223930  77.0835050  41.5106610  75.5396130  76.2703740
  41.4793890  74.3435810  77.1979570  30.1541210  71.8124730  79.3065250
  29.8654260  72.3827590  80.0190230  30.8986970  71.3329180  79.6696480
  30.3411440  75.7544850  70.5167970  30.2586110  76.6975610  70.6582960
  29.9894500  75.6119760  69.6380320  41.7032180  77.8129680  81.1785830
  40.9713300  78.3216490  81.5275930  41.3056520  76.9959660  80.8774610
  38.1409570  74.4883880  79.5838320  38.1445630  74.0473830  78.7342860
  39.0360690  74.8101210  79.6910140  33.9911950  74.3710370  78.5432530
  33.6512000  74.8485600  79.2999580  33.2289270  73.9175490  78.1833630
  38.2029720  75.4895960  72.5745080  38.3242540  75.4482440  73.5230900
  37.8178230  76.3520110  72.4191810  42.1658090  73.2663360  80.5908770
  42.1830830  73.7172010  81.4350620  41.9173670  72.3669000  80.8042210
  37.2151220  77.7997100  71.9728380  36.6468120  77.3515350  71.3464290
  37.9240220  78.1589880  71.4393530  31.3058030  73.2929350  77.4597200
  31.0204950  72.9285020  78.2975820  31.2436890  72.5609810  76.8460340
  40.9796620  72.1858610  74.1810570  40.1661230  71.6871780  74.1055880
  40.7858570  73.0256860  73.7646920  43.6945010  76.5578260  72.4772730
  44.5824630  76.8695490  72.3024070  43.6650100  75.6850510  72.0853310
  45.9659280  77.8690100  71.9452590  45.8823000  78.3004320  71.0949030
  46.6853470  78.3288450  72.3779410  30.7988690  78.4288300  71.4193900
  31.6683540  78.7113100  71.7029820  30.3079010  79.2424170  71.3042710
  37.9623500  79.8161510  75.5402180  38.4186280  80.6266760  75.7662370
  37.6111710  79.4984650  76.3720670  33.8635280  70.1599160  76.0124700
  33.7349910  70.1517060  76.9609620  33.0397300  70.4982250  75.6615710
  32.7835200  80.2461770  73.5475960  32.1763150  80.9860670  73.5571260
  33.2584550  80.3361130  72.7214160  45.7230020  73.3669530  74.0320410
  45.0943180  73.4715200  73.3178640  45.2281940  73.5866310  74.8214290
  37.6914050  75.6455480  75.4478290  36.9830200  76.1141820  75.8891900
  37.9758530  74.9877490  76.0823480  41.7229480  72.3706140  76.8874080
  41.5997260  72.3892270  75.9383590  42.6714040  72.4185080  77.0072480
  35.8949070  73.9540560  72.8229000  36.7439600  74.3910710  72.7569190
  35.5280340  74.2660820  73.6501060  44.8158850  78.5253320  77.7360570
  43.8748990  78.5403550  77.9108260  45.1302920  77.7389280  78.1820870
  34.7940490  80.2072920  71.2964530  35.5603760  80.0954280  71.8589960
  34.8715180  79.5110890  70.6441300  33.4887250  77.6397990  71.9797420
  33.5690840  76.6925500  72.0914820  34.3807000  77.9704870  72.0858080
  36.8259520  80.2038050  73.2707170  37.2475940  80.0377920  74.1138560
  36.9510360  79.3938280  72.7762310  39.3387160  79.2275660  70.5184270
  39.8592820  78.5124680  70.1525420  39.9855560  79.8661530  70.8184780
  35.7218420  76.2771280  70.2165330  35.5207480  75.4138640  70.5778670
  35.5510470  76.1904640  69.2786930  43.2006730  71.0879510  72.7452210
  43.4809020  70.2447410  73.1011630  42.4272460  71.3202620  73.2590960
  34.5201220  73.3771900  70.2043210  34.8227120  73.3839330  69.2962360
  35.2595810  73.0269760  70.7010870  37.7386150  72.3206520  71.1899410
  37.3908150  71.6430510  70.6101860  37.9398920  71.8596030  72.0042800
  47.5787450  80.3256240  73.3556120  48.3406360  80.8952890  73.4615810
  47.5941820  79.7583440  74.1264430  31.0791790  78.8494170  77.5863780
  30.4240630  78.5805810  76.9423480  31.9169740  78.7398650  77.1365760
  44.0282230  73.6435460  71.8082270  44.4467110  73.4566440  70.9678930
  43.7218290  72.7914510  72.1185200  47.5271960  78.5559600  75.5058070
  47.1515560  77.7887530  75.0739360  46.7975080  78.9382300  75.9933000
  30.2929870  76.0593100  73.5289110  29.3893950  76.3223300  73.3540770
  30.7770490  76.3304270  72.7489070  46.8022920  76.7817090  78.8065310
  47.3260400  76.2879740  78.1755480  47.3882340  76.9167450  79.5512880
  32.8357080  75.1158640  71.4383490  33.5448780  74.6941860  70.9530770
  32.1197020  75.1833870  70.8066840  32.4831240  71.1697970  70.4786140
  33.2059370  71.7106910  70.7967360  32.7555760  70.8961390  69.6027680
  46.2922890  76.0390440  74.7457720  46.7882010  75.8061310  75.5306600
  46.0938960  75.2002280  74.3295360  32.1723430  70.4204160  80.3808760
  32.8199620  69.8701540  79.9403920  32.5925270  70.6747310  81.2024570
  47.7210050  74.6751390  77.2795400  47.6109330  74.5207430  78.2177670
  48.4817640  74.1472330  77.0370810  48.6100320  72.5059310  70.5201540
  49.5349630  72.3740490  70.3119830  48.5876110  72.5852130  71.4737990
  48.6838810  73.2769970  73.1458250  47.8890310  73.2115090  73.6751160
  48.8882090  74.2120610  73.1343600  40.5637670  70.9043750  81.5507990
  39.7809460  71.3789250  81.8304750  40.2700600  69.9998580  81.4421170
  45.1158740  71.6066850  79.5957080  45.5566830  71.5511950  78.7478680
  44.8466330  72.5224860  79.6667260  46.9797310  71.2382090  77.6065900
  46.9185710  70.2943310  77.4596920  47.7589340  71.3462180  78.1519360
  31.9078080  71.2091230  74.0721710  32.6657440  71.3220110  73.4985740
  31.4455250  72.0460430  74.0265140  38.4491890  73.3230500  77.0624020
  37.6366400  72.9487390  76.7219900  38.9533530  72.5675580  77.3645210
  42.9516870  69.9872950  78.3007090  43.5546240  70.5593160  78.7755610
  42.2109860  70.5512390  78.0780990  46.0951470  70.3894510  73.5747370
  46.2902100  71.2877960  73.8414800  45.3081340  70.1581590  74.0680320
  34.2803230  71.7355280  72.6123680  34.8095990  70.9485080  72.4831630
  34.9131550  72.4146470  72.8459210  36.4741070  71.4730420  75.6669070
  35.8443810  70.7717730  75.8339200  35.9346210  72.2334550  75.4502230
  42.1070240  78.1860450  59.0436770  42.0264290  77.2715060  58.7728480
  41.6934660  78.6827520  58.3376480  40.2388280  79.9639470  60.9246040
  39.4630380  79.4839910  61.2144610  40.8901210  79.2845120  60.7502200
  34.2554110  80.2759280  61.8021800  33.4238990  80.0207990  62.2018310
  34.8635090  80.3470050  62.5379720  32.6646060  75.2361170  55.5864190
  31.7762760  75.5777140  55.4844070  32.9487250  75.0361490  54.6945020
  30.6279070  77.8366820  61.4703890  31.1995180  77.0689020  61.4707530
  30.6280610  78.1355580  60.5610500  31.8703940  73.2451180  63.2572820
  31.6906780  72.3476930  63.5375580  31.4684020  73.7923050  63.9319770
  40.7102440  75.4467040  61.1585130  41.0867260  74.5738920  61.0458800
  40.6121950  75.7825740  60.2675570  34.8407450  73.8192670  56.6202570
  34.9474200  74.7196400  56.9271330  33.9299810  73.7710640  56.3297220
  44.4926560  72.9417480  58.0913470  45.3136180  72.4514050  58.1338950
  44.5260640  73.5315140  58.8445310  32.4890610  75.7411680  61.8655160
  33.1700720  76.0050050  62.4842560  32.1738660  74.9012550  62.1993170
  36.6815180  76.7879040  60.9527750  37.1893400  77.2860010  61.5932770
  37.2128420  76.0114240  60.7767110  48.7826110  74.9584230  64.6557100
  48.0778280  75.3465940  64.1372210  49.0484030  75.6534520  65.2578030
  34.9651280  71.4277600  65.2191170  34.9669720  71.9449990  64.4137070
  34.1355590  70.9507780  65.1961100  44.7288040  74.8817860  60.8641010
  44.0243610  75.1702750  61.4444120  45.0900200  75.6917970  60.5040570
  34.6466610  73.1387560  63.2261620  34.9883420  73.9829610  62.9315490
  33.7082420  73.2871300  63.3426960  47.7974960  74.3272650  61.2550220
  46.8499870  74.3611630  61.3865650  48.1224950  75.1411600  61.6399580
  38.3294500  70.6269830  59.5506210  38.6369480  70.0716720  58.8341710
  37.3995200  70.7614290  59.3679200  40.7175260  78.6918660  56.2866330
  39.7904540  78.6256040  56.5154800  40.8700080  79.6298790  56.1721570
  40.7044340  74.9635660  53.2833490  39.7648010  75.1249620  53.3685950
  41.0227600  75.6821340  52.7369480  47.2257100  79.6454180  63.2612520
  46.3975730  79.7147270  62.7862650  47.8207580  80.2308490  62.7928350
  44.7472550  80.2538960  56.7901580  44.1284970  79.9158510  56.1427880
  44.7297000  79.6098720  57.4980770  44.1899110  76.4323500  64.2067390
  43.7770290  77.2577210  64.4607380  43.4575060  75.8468540  64.0143750
  36.3231900  79.2183400  59.0686060  35.9188900  78.5060650  58.5731960
  36.4095020  78.8736640  59.9574100  35.0360520  75.9926610  62.8485100
  35.5875110  76.1021950  62.0738350  35.5504030  76.3664210  63.5640330
  42.9237250  79.4925770  53.7974330  43.3630530  78.6548200  53.6512150
  43.6365670  80.1255170  53.8838470  34.7103250  79.5145970  66.4590440
  34.5711020  80.3868770  66.8277840  33.8284610  79.1718780  66.3138380
  46.5054390  70.7468580  52.1115370  46.1927050  70.8395410  53.0114440
  47.2666860  71.3249610  52.0612800  33.0236530  78.1128380  56.5692710
  32.9034130  78.8390470  55.9573980  32.7137420  77.3431290  56.0920620
  47.7155680  75.4840080  68.0889510  47.0999950  75.9919750  67.5604970
  47.3952100  74.5838410  68.0315450  35.4900190  71.4563450  59.9516380
  35.0468340  72.2372990  59.6200900  36.0485180  71.7793340  60.6587320
  39.7770000  74.3231970  65.5551700  39.3149370  74.5314990  66.3671640
  39.3748110  73.5091320  65.2522370  44.7774510  75.5440920  66.6848360
  43.9268100  75.2446670  67.0057430  44.6176300  75.7882930  65.7732180
  41.8724220  77.0442670  68.7847150  42.1977630  76.2106420  68.4449380
  42.6604550  77.5671190  68.9325480  38.6059010  71.0774150  54.8322210
  37.9813190  71.0734020  55.5575520  38.5189130  70.2105110  54.4358180
  37.5276090  72.0010780  61.8105980  37.8248420  72.9073610  61.7298000
  38.0761650  71.5129560  61.1965550  35.2814410  76.5797020  57.6797630
  35.0555330  76.3634190  58.5844250  34.5006940  77.0125480  57.3343600
  42.5112170  76.5860390  56.2788280  41.9121060  77.3096190  56.0951900
  43.0591780  76.5237170  55.4964730  37.7213620  77.4782600  68.3457900
  37.6257220  76.5377330  68.1958300  38.5645600  77.6997670  67.9505970
  41.1177040  75.2223930  58.3091560  41.5106610  75.5396130  57.4960250
  41.4793890  74.3435810  58.4236080  32.8524160  73.8896270  66.4991680
  32.4587550  74.7371480  66.7064460  32.1642560  73.2522640  66.6900320
  39.4269210  73.9731240  69.5688420  38.7367530  73.7803440  70.2034510
  40.1701510  74.2565880  70.1012720  30.1541210  71.8124730  60.5321760
  29.8654260  72.3827590  61.2446740  30.8986970  71.3329180  60.8952990
  30.3411440  75.7544850  51.7424480  30.2586110  76.6975610  51.8839470
  29.9894500  75.6119760  50.8636830  41.7032180  77.8129680  62.4042340
  40.9713300  78.3216490  62.7532440  41.3056520  76.9959660  62.1031120
  38.1409570  74.4883880  60.8094830  38.1445630  74.0473830  59.9599370
  39.0360690  74.8101210  60.9166650  33.9911950  74.3710370  59.7689040
  33.6512000  74.8485600  60.5256090  33.2289270  73.9175490  59.4090140
  38.2029720  75.4895960  53.8001590  38.3242540  75.4482440  54.7487410
  37.8178230  76.3520110  53.6448320  42.1658090  73.2663360  61.8165280
  42.1830830  73.7172010  62.6607130  41.9173670  72.3669000  62.0298720
  37.2151220  77.7997100  53.1984890  36.6468120  77.3515350  52.5720800
  37.9240220  78.1589880  52.6650040  45.5928840  70.6795540  67.6551660
  45.9174610  69.9485200  68.1809640  45.6285350  70.3609180  66.7532650
  38.4417540  78.5485660  62.5560240  38.8087670  78.0744230  63.3021580
  38.2522600  79.4227230  62.8968580  31.3058030  73.2929350  58.6853710
  31.0204950  72.9285020  59.5232330  31.2436890  72.5609810  58.0716850
  36.2316910  77.5894300  64.8744450  35.9273980  78.4686280  65.0994810
  37.1863370  77.6494090  64.9101890  40.9796620  72.1858610  55.4067080
  40.1661230  71.6871780  55.3312390  40.7858570  73.0256860  54.9903430
  40.9005480  80.8629710  67.1506690  40.8342790  79.9425380  66.8964280
  40.2710620  80.9605150  67.8651330  43.6945010  76.5578260  53.7029240
  44.5824630  76.8695490  53.5280580  43.6650100  75.6850510  53.3109820
  32.2880640  78.4297040  66.0215810  31.9295580  79.0950890  66.6089150
  31.9935200  77.5980590  66.3928430  35.4893760  78.8881280  68.9055360
  35.1893900  79.0338460  68.0083180  36.2605000  78.3286570  68.8128750
  45.9659280  77.8690100  53.1709100  45.8823000  78.3004320  52.3205540
  46.6853470  78.3288450  53.6035920  47.0433420  80.3257620  66.2479070
  46.3181610  80.9186400  66.0508460  47.5708880  80.3181160  65.4492440
  30.7988690  78.4288300  52.6450410  31.6683540  78.7113100  52.9286330
  30.3079010  79.2424170  52.5299220  37.9623500  79.8161510  56.7658690
  38.4186280  80.6266760  56.9918880  37.6111710  79.4984650  57.5977180
  33.8635280  70.1599160  57.2381210  33.7349910  70.1517060  58.1866130
  33.0397300  70.4982250  56.8872220  30.8629210  71.9190280  66.6987910
  30.1487730  72.1187200  67.3040520  31.2824250  71.1429850  67.0702710
  32.7835200  80.2461770  54.7732470  32.1763150  80.9860670  54.7827770
  33.2584550  80.3361130  53.9470670  42.3567990  74.4112590  64.4489360
  42.7248810  73.5907800  64.7768930  41.4966190  74.4714480  64.8645010
  45.7230020  73.3669530  55.2576920  45.0943180  73.4715200  54.5435150
  45.2281940  73.5866310  56.0470800  37.6914050  75.6455480  56.6734800
  36.9830200  76.1141820  57.1148410  37.9758530  74.9877490  57.3079990
  39.3169980  77.0652180  64.6727330  39.8155230  77.5398000  65.3379180
  39.4592930  76.1415700  64.8797360  41.7229480  72.3706140  58.1130590
  41.5997260  72.3892270  57.1640100  42.6714040  72.4185080  58.2328990
  35.8949070  73.9540560  54.0485510  36.7439600  74.3910710  53.9825700
  35.5280340  74.2660820  54.8757570  46.5236840  73.2820140  65.5155720
  46.0210440  74.0225540  65.8549530  47.3393500  73.6704140  65.1992510
  44.8158850  78.5253320  58.9617080  43.8748990  78.5403550  59.1364770
  45.1302920  77.7389280  59.4077380  34.7940490  80.2072920  52.5221040
  35.5603760  80.0954280  53.0846470  34.8715180  79.5110890  51.8697810
  33.4887250  77.6397990  53.2053930  33.5690840  76.6925500  53.3171330
  34.3807000  77.9704870  53.3114590  31.0158050  79.4612910  68.4410100
  31.5197070  78.8820190  69.0126330  30.2765470  79.7453140  68.9786470
  33.0481130  77.6042500  69.3360170  33.0886470  77.3056370  70.2445400
  33.9026630  78.0050110  69.1767690  36.8259520  80.2038050  54.4963680
  37.2475940  80.0377920  55.3395070  36.9510360  79.3938280  54.0018820
  34.9886940  76.1834600  67.3034660  34.4583400  75.6925550  66.6758000
  35.6575010  76.6118800  66.7692590  39.3387160  79.2275660  51.7440780
  39.8592820  78.5124680  51.3781930  39.9855560  79.8661530  52.0441290
  43.8865000  80.6504060  67.0675850  44.3006020  80.8049140  67.9166270
  42.9516000  80.7759280  67.2301630  44.3587170  77.9900220  69.0715000
  44.9407940  77.2352540  68.9835480  44.5348940  78.5207660  68.2946480
  35.4759240  73.1496970  67.3831950  35.3816110  72.5317720  66.6582820
  34.8956630  73.8763260  67.1561860  38.2420680  71.7070210  64.4159340
  37.7937980  71.7294470  63.5704890  37.6085880  71.3089230  65.0129640
  40.9844130  78.3340720  66.4209620  41.1040340  77.7381860  67.1604460
  41.8438130  78.3710410  66.0010920  43.3232030  78.8877910  64.9972130
  42.7967250  79.4120530  64.3937270  43.6663370  79.5205300  65.6281860
  35.7218420  76.2771280  51.4421840  35.5207480  75.4138640  51.8035180
  35.5510470  76.1904640  50.5043440  37.7512900  74.8762070  67.6785440
  38.3412590  74.5677920  68.3663260  36.9333140  74.4041820  67.8345340
  42.5706330  74.4927880  67.9118460  41.8821850  73.8309420  67.8468450
  43.2912350  74.0466150  68.3566920  43.2006730  71.0879510  53.9708720
  43.4809020  70.2447410  54.3268140  42.4272460  71.3202620  54.4847470
  34.5201220  73.3771900  51.4299720  34.8227120  73.3839330  50.5218870
  35.2595810  73.0269760  51.9267380  37.7386150  72.3206520  52.4155920
  37.3908150  71.6430510  51.8358370  37.9398920  71.8596030  53.2299310
  47.5787450  80.3256240  54.5812630  48.3406360  80.8952890  54.6872320
  47.5941820  79.7583440  55.3520940  31.0791790  78.8494170  58.8120290
  30.4240630  78.5805810  58.1679990  31.9169740  78.7398650  58.3622270
  44.0282230  73.6435460  53.0338780  44.4467110  73.4566440  52.1935440
  43.7218290  72.7914510  53.3441710  47.5271960  78.5559600  56.7314580
  47.1515560  77.7887530  56.2995870  46.7975080  78.9382300  57.2189510
  32.1167720  79.2346740  63.3523630  32.4840760  79.1474140  64.2319650
  31.5478540  78.4713290  63.2530490  46.9171580  77.7031120  66.3654100
  46.6857670  77.4743870  65.4652050  47.1776130  78.6230670  66.3198990
  31.6683720  76.1455830  67.2582050  30.7739770  76.1122590  67.5975760
  32.2081270  76.3442620  68.0233300  45.3559650  72.9287550  69.1433800
  46.2329830  72.9370950  69.5267800  45.3680490  72.1918390  68.5326150
  30.2929870  76.0593100  54.7545620  29.3893950  76.3223300  54.5797280
  30.7770490  76.3304270  53.9745580  46.8022920  76.7817090  60.0321820
  47.3260400  76.2879740  59.4011990  47.3882340  76.9167450  60.7769390
  46.9812640  76.8656960  63.5541370  46.0315350  76.8320500  63.6686360
  47.1625650  77.7757070  63.3191140  32.8357080  75.1158640  52.6640000
  33.5448780  74.6941860  52.1787280  32.1197020  75.1833870  52.0323350
  32.4831240  71.1697970  51.7042650  33.2059370  71.7106910  52.0223870
  32.7555760  70.8961390  50.8284190  46.2922890  76.0390440  55.9714230
  46.7882010  75.8061310  56.7563110  46.0938960  75.2002280  55.5551870
  32.1723430  70.4204160  61.6065270  32.8199620  69.8701540  61.1660430
  32.5925270  70.6747310  62.4281080  47.7210050  74.6751390  58.5051910
  47.6109330  74.5207430  59.4434180  48.4817640  74.1472330  58.2627320
  46.0675770  70.6145520  64.9634910  46.7047990  71.2279660  65.3294100
  46.2150660  70.6506180  64.0184140  48.6100320  72.5059310  51.7458050
  49.5349630  72.3740490  51.5376340  48.5876110  72.5852130  52.6994500
  48.6838810  73.2769970  54.3714760  47.8890310  73.2115090  54.9007670
  48.8882090  74.2120610  54.3600110  31.9255430  70.5759830  64.3490590
  31.5770250  71.0323650  65.1148770  31.5943130  69.6816960  64.4313020
  39.4380250  71.7671710  67.8710010  39.3769140  72.3593540  68.6205420
  40.3780630  71.6597670  67.7260270  42.0754810  71.4241770  67.5102300
  42.6895220  71.7421060  66.8483380  42.6204370  70.9390360  68.1298160
  32.5976070  70.1036030  67.6241360  33.1459060  69.9224080  66.8607470
  32.6631380  69.3130140  68.1597670  42.8162850  69.9873910  63.8371590
  41.9422690  70.3209020  63.6344520  42.7073600  69.5147090  64.6623460
  43.7234830  72.1944780  65.2213310  43.3948190  71.3796540  64.8415040
  44.6717130  72.1514590  65.0979000  40.5637670  70.9043750  62.7764500
  39.7809460  71.3789250  63.0561260  40.2700600  69.9998580  62.6677680
  45.1158740  71.6066850  60.8213590  45.5566830  71.5511950  59.9735190
  44.8466330  72.5224860  60.8923770  46.9797310  71.2382090  58.8322410
  46.9185710  70.2943310  58.6853430  47.7589340  71.3462180  59.3775870
  31.9078080  71.2091230  55.2978220  32.6657440  71.3220110  54.7242250
  31.4455250  72.0460430  55.2521650  38.4491890  73.3230500  58.2880530
  37.6366400  72.9487390  57.9476410  38.9533530  72.5675580  58.5901720
  42.9516870  69.9872950  59.5263600  43.5546240  70.5593160  60.0012120
  42.2109860  70.5512390  59.3037500  46.0951470  70.3894510  54.8003880
  46.2902100  71.2877960  55.0671310  45.3081340  70.1581590  55.2936830
  34.2803230  71.7355280  53.8380190  34.8095990  70.9485080  53.7088140
  34.9131550  72.4146470  54.0715720  36.4741070  71.4730420  56.8925580
  35.8443810  70.7717730  57.0595710  35.9346210  72.2334550  56.6758740
  36.5996630  70.7514400  69.3278070  36.3180900  71.2548000  68.5638890
  36.9816330  69.9536150  68.9620200  43.2012090  70.1667980  69.9058540
  43.0877540  70.4862590  70.8010060  44.0181830  70.5680490  69.6095820
  42.1070240  78.1860450  40.2693280  42.0264290  77.2715060  39.9984990
  41.6934660  78.6827520  39.5632990  40.2388280  79.9639470  42.1502550
  39.4630380  79.4839910  42.4401120  40.8901210  79.2845120  41.9758710
  34.2554110  80.2759280  43.0278310  33.4238990  80.0207990  43.4274820
  34.8635090  80.3470050  43.7636230  32.6646060  75.2361170  36.8120700
  31.7762760  75.5777140  36.7100580  32.9487250  75.0361490  35.9201530
  30.6279070  77.8366820  42.6960400  31.1995180  77.0689020  42.6964040
  30.6280610  78.1355580  41.7867010  31.8703940  73.2451180  44.4829330
  31.6906780  72.3476930  44.7632090  31.4684020  73.7923050  45.1576280
  40.7102440  75.4467040  42.3841640  41.0867260  74.5738920  42.2715310
  40.6121950  75.7825740  41.4932080  34.8407450  73.8192670  37.8459080
  34.9474200  74.7196400  38.1527840  33.9299810  73.7710640  37.5553730
  44.4926560  72.9417480  39.3169980  45.3136180  72.4514050  39.3595460
  44.5260640  73.5315140  40.0701820  32.4890610  75.7411680  43.0911670
  33.1700720  76.0050050  43.7099070  32.1738660  74.9012550  43.4249680
  36.6815180  76.7879040  42.1784260  37.1893400  77.2860010  42.8189280
  37.2128420  76.0114240  42.0023620  48.7826110  74.9584230  45.8813610
  48.0778280  75.3465940  45.3628720  49.0484030  75.6534520  46.4834540
  34.9651280  71.4277600  46.4447680  34.9669720  71.9449990  45.6393580
  34.1355590  70.9507780  46.4217610  44.7288040  74.8817860  42.0897520
  44.0243610  75.1702750  42.6700630  45.0900200  75.6917970  41.7297080
  34.6466610  73.1387560  44.4518130  34.9883420  73.9829610  44.1572000
  33.7082420  73.2871300  44.5683470  47.7974960  74.3272650  42.4806730
  46.8499870  74.3611630  42.6122160  48.1224950  75.1411600  42.8656090
  38.3294500  70.6269830  40.7762720  38.6369480  70.0716720  40.0598220
  37.3995200  70.7614290  40.5935710  40.7175260  78.6918660  37.5122840
  39.7904540  78.6256040  37.7411310  40.8700080  79.6298790  37.3978080
  40.7044340  74.9635660  34.5090000  39.7648010  75.1249620  34.5942460
  41.0227600  75.6821340  33.9625990  47.2257100  79.6454180  44.4869030
  46.3975730  79.7147270  44.0119160  47.8207580  80.2308490  44.0184860
  44.7472550  80.2538960  38.0158090  44.1284970  79.9158510  37.3684390
  44.7297000  79.6098720  38.7237280  44.1899110  76.4323500  45.4323900
  43.7770290  77.2577210  45.6863890  43.4575060  75.8468540  45.2400260
  36.3231900  79.2183400  40.2942570  35.9188900  78.5060650  39.7988470
  36.4095020  78.8736640  41.1830610  35.0360520  75.9926610  44.0741610
  35.5875110  76.1021950  43.2994860  35.5504030  76.3664210  44.7896840
  42.9237250  79.4925770  35.0230840  43.3630530  78.6548200  34.8768660
  43.6365670  80.1255170  35.1094980  34.7103250  79.5145970  47.6846950
  34.5711020  80.3868770  48.0534350  33.8284610  79.1718780  47.5394890
  46.5054390  70.7468580  33.3371880  46.1927050  70.8395410  34.2370950
  47.2666860  71.3249610  33.2869310  33.0236530  78.1128380  37.7949220
  32.9034130  78.8390470  37.1830490  32.7137420  77.3431290  37.3177130
  47.7155680  75.4840080  49.3146020  47.0999950  75.9919750  48.7861480
  47.3952100  74.5838410  49.2571960  35.4900190  71.4563450  41.1772890
  35.0468340  72.2372990  40.8457410  36.0485180  71.7793340  41.8843830
  39.7770000  74.3231970  46.7808210  39.3149370  74.5314990  47.5928150
  39.3748110  73.5091320  46.4778880  44.7774510  75.5440920  47.9104870
  43.9268100  75.2446670  48.2313940  44.6176300  75.7882930  46.9988690
  41.8724220  77.0442670  50.0103660  42.1977630  76.2106420  49.6705890
  42.6604550  77.5671190  50.1581990  38.6059010  71.0774150  36.0578720
  37.9813190  71.0734020  36.7832030  38.5189130  70.2105110  35.6614690
  37.5276090  72.0010780  43.0362490  37.8248420  72.9073610  42.9554510
  38.0761650  71.5129560  42.4222060  35.2814410  76.5797020  38.9054140
  35.0555330  76.3634190  39.8100760  34.5006940  77.0125480  38.5600110
  42.5112170  76.5860390  37.5044790  41.9121060  77.3096190  37.3208410
  43.0591780  76.5237170  36.7221240  37.7213620  77.4782600  49.5714410
  37.6257220  76.5377330  49.4214810  38.5645600  77.6997670  49.1762480
  41.1177040  75.2223930  39.5348070  41.5106610  75.5396130  38.7216760
  41.4793890  74.3435810  39.6492590  32.8524160  73.8896270  47.7248190
  32.4587550  74.7371480  47.9320970  32.1642560  73.2522640  47.9156830
  39.4269210  73.9731240  50.7944930  38.7367530  73.7803440  51.4291020
  40.1701510  74.2565880  51.3269230  30.1541210  71.8124730  41.7578270
  29.8654260  72.3827590  42.4703250  30.8986970  71.3329180  42.1209500
  30.3411440  75.7544850  32.9680990  30.2586110  76.6975610  33.1095980
  29.9894500  75.6119760  32.0893340  41.7032180  77.8129680  43.6298850
  40.9713300  78.3216490  43.9788950  41.3056520  76.9959660  43.3287630
  38.1409570  74.4883880  42.0351340  38.1445630  74.0473830  41.1855880
  39.0360690  74.8101210  42.1423160  33.9911950  74.3710370  40.9945550
  33.6512000  74.8485600  41.7512600  33.2289270  73.9175490  40.6346650
  38.2029720  75.4895960  35.0258100  38.3242540  75.4482440  35.9743920
  37.8178230  76.3520110  34.8704830  42.1658090  73.2663360  43.0421790
  42.1830830  73.7172010  43.8863640  41.9173670  72.3669000  43.2555230
  37.2151220  77.7997100  34.4241400  36.6468120  77.3515350  33.7977310
  37.9240220  78.1589880  33.8906550  45.5928840  70.6795540  48.8808170
  45.9174610  69.9485200  49.4066150  45.6285350  70.3609180  47.9789160
  38.4417540  78.5485660  43.7816750  38.8087670  78.0744230  44.5278090
  38.2522600  79.4227230  44.1225090  31.3058030  73.2929350  39.9110220
  31.0204950  72.9285020  40.7488840  31.2436890  72.5609810  39.2973360
  36.2316910  77.5894300  46.1000960  35.9273980  78.4686280  46.3251320
  37.1863370  77.6494090  46.1358400  40.9796620  72.1858610  36.6323590
  40.1661230  71.6871780  36.5568900  40.7858570  73.0256860  36.2159940
  40.9005480  80.8629710  48.3763200  40.8342790  79.9425380  48.1220790
  40.2710620  80.9605150  49.0907840  43.6945010  76.5578260  34.9285750
  44.5824630  76.8695490  34.7537090  43.6650100  75.6850510  34.5366330
  32.2880640  78.4297040  47.2472320  31.9295580  79.0950890  47.8345660
  31.9935200  77.5980590  47.6184940  35.4893760  78.8881280  50.1311870
  35.1893900  79.0338460  49.2339690  36.2605000  78.3286570  50.0385260
  45.9659280  77.8690100  34.3965610  45.8823000  78.3004320  33.5462050
  46.6853470  78.3288450  34.8292430  47.0433420  80.3257620  47.4735580
  46.3181610  80.9186400  47.2764970  47.5708880  80.3181160  46.6748950
  30.7988690  78.4288300  33.8706920  31.6683540  78.7113100  34.1542840
  30.3079010  79.2424170  33.7555730  37.9623500  79.8161510  37.9915200
  38.4186280  80.6266760  38.2175390  37.6111710  79.4984650  38.8233690
  33.8635280  70.1599160  38.4637720  33.7349910  70.1517060  39.4122640
  33.0397300  70.4982250  38.1128730  30.8629210  71.9190280  47.9244420
  30.1487730  72.1187200  48.5297030  31.2824250  71.1429850  48.2959220
  32.7835200  80.2461770  35.9988980  32.1763150  80.9860670  36.0084280
  33.2584550  80.3361130  35.1727180  42.3567990  74.4112590  45.6745870
  42.7248810  73.5907800  46.0025440  41.4966190  74.4714480  46.0901520
  45.7230020  73.3669530  36.4833430  45.0943180  73.4715200  35.7691660
  45.2281940  73.5866310  37.2727310  37.6914050  75.6455480  37.8991310
  36.9830200  76.1141820  38.3404920  37.9758530  74.9877490  38.5336500
  39.3169980  77.0652180  45.8983840  39.8155230  77.5398000  46.5635690
  39.4592930  76.1415700  46.1053870  41.7229480  72.3706140  39.3387100
  41.5997260  72.3892270  38.3896610  42.6714040  72.4185080  39.4585500
  35.8949070  73.9540560  35.2742020  36.7439600  74.3910710  35.2082210
  35.5280340  74.2660820  36.1014080  46.5236840  73.2820140  46.7412230
  46.0210440  74.0225540  47.0806040  47.3393500  73.6704140  46.4249020
  44.8158850  78.5253320  40.1873590  43.8748990  78.5403550  40.3621280
  45.1302920  77.7389280  40.6333890  34.7940490  80.2072920  33.7477550
  35.5603760  80.0954280  34.3102980  34.8715180  79.5110890  33.0954320
  33.4887250  77.6397990  34.4310440  33.5690840  76.6925500  34.5427840
  34.3807000  77.9704870  34.5371100  31.0158050  79.4612910  49.6666610
  31.5197070  78.8820190  50.2382840  30.2765470  79.7453140  50.2042980
  33.0481130  77.6042500  50.5616680  33.0886470  77.3056370  51.4701910
  33.9026630  78.0050110  50.4024200  36.8259520  80.2038050  35.7220190
  37.2475940  80.0377920  36.5651580  36.9510360  79.3938280  35.2275330
  34.9886940  76.1834600  48.5291170  34.4583400  75.6925550  47.9014510
  35.6575010  76.6118800  47.9949100  39.3387160  79.2275660  32.9697290
  39.8592820  78.5124680  32.6038440  39.9855560  79.8661530  33.2697800
  43.8865000  80.6504060  48.2932360  44.3006020  80.8049140  49.1422780
  42.9516000  80.7759280  48.4558140  44.3587170  77.9900220  50.2971510
  44.9407940  77.2352540  50.2091990  44.5348940  78.5207660  49.5202990
  35.4759240  73.1496970  48.6088460  35.3816110  72.5317720  47.8839330
  34.8956630  73.8763260  48.3818370  38.2420680  71.7070210  45.6415850
  37.7937980  71.7294470  44.7961400  37.6085880  71.3089230  46.2386150
  40.9844130  78.3340720  47.6466130  41.1040340  77.7381860  48.3860970
  41.8438130  78.3710410  47.2267430  43.3232030  78.8877910  46.2228640
  42.7967250  79.4120530  45.6193780  43.6663370  79.5205300  46.8538370
  35.7218420  76.2771280  32.6678350  35.5207480  75.4138640  33.0291690
  35.5510470  76.1904640  31.7299950  37.7512900  74.8762070  48.9041950
  38.3412590  74.5677920  49.5919770  36.9333140  74.4041820  49.0601850
  42.5706330  74.4927880  49.1374970  41.8821850  73.8309420  49.0724960
  43.2912350  74.0466150  49.5823430  43.2006730  71.0879510  35.1965230
  43.4809020  70.2447410  35.5524650  42.4272460  71.3202620  35.7103980
  34.5201220  73.3771900  32.6556230  34.8227120  73.3839330  31.7475380
  35.2595810  73.0269760  33.1523890  37.7386150  72.3206520  33.6412430
  37.3908150  71.6430510  33.0614880  37.9398920  71.8596030  34.4555820
  47.5787450  80.3256240  35.8069140  48.3406360  80.8952890  35.9128830
  47.5941820  79.7583440  36.5777450  31.0791790  78.8494170  40.0376800
  30.4240630  78.5805810  39.3936500  31.9169740  78.7398650  39.5878780
  44.0282230  73.6435460  34.2595290  44.4467110  73.4566440  33.4191950
  43.7218290  72.7914510  34.5698220  47.5271960  78.5559600  37.9571090
  47.1515560  77.7887530  37.5252380  46.7975080  78.9382300  38.4446020
  32.1167720  79.2346740  44.5780140  32.4840760  79.1474140  45.4576160
  31.5478540  78.4713290  44.4787000  46.9171580  77.7031120  47.5910610
  46.6857670  77.4743870  46.6908560  47.1776130  78.6230670  47.5455500
  31.6683720  76.1455830  48.4838560  30.7739770  76.1122590  48.8232270
  32.2081270  76.3442620  49.2489810  45.3559650  72.9287550  50.3690310
  46.2329830  72.9370950  50.7524310  45.3680490  72.1918390  49.7582660
  30.2929870  76.0593100  35.9802130  29.3893950  76.3223300  35.8053790
  30.7770490  76.3304270  35.2002090  46.8022920  76.7817090  41.2578330
  47.3260400  76.2879740  40.6268500  47.3882340  76.9167450  42.0025900
  46.9812640  76.8656960  44.7797880  46.0315350  76.8320500  44.8942870
  47.1625650  77.7757070  44.5447650  32.8357080  75.1158640  33.8896510
  33.5448780  74.6941860  33.4043790  32.1197020  75.1833870  33.2579860
  32.4831240  71.1697970  32.9299160  33.2059370  71.7106910  33.2480380
  32.7555760  70.8961390  32.0540700  46.2922890  76.0390440  37.1970740
  46.7882010  75.8061310  37.9819620  46.0938960  75.2002280  36.7808380
  32.1723430  70.4204160  42.8321780  32.8199620  69.8701540  42.3916940
  32.5925270  70.6747310  43.6537590  47.7210050  74.6751390  39.7308420
  47.6109330  74.5207430  40.6690690  48.4817640  74.1472330  39.4883830
  46.0675770  70.6145520  46.1891420  46.7047990  71.2279660  46.5550610
  46.2150660  70.6506180  45.2440650  48.6100320  72.5059310  32.9714560
  49.5349630  72.3740490  32.7632850  48.5876110  72.5852130  33.9251010
  48.6838810  73.2769970  35.5971270  47.8890310  73.2115090  36.1264180
  48.8882090  74.2120610  35.5856620  31.9255430  70.5759830  45.5747100
  31.5770250  71.0323650  46.3405280  31.5943130  69.6816960  45.6569530
  39.4380250  71.7671710  49.0966520  39.3769140  72.3593540  49.8461930
  40.3780630  71.6597670  48.9516780  42.0754810  71.4241770  48.7358810
  42.6895220  71.7421060  48.0739890  42.6204370  70.9390360  49.3554670
  32.5976070  70.1036030  48.8497870  33.1459060  69.9224080  48.0863980
  32.6631380  69.3130140  49.3854180  42.8162850  69.9873910  45.0628100
  41.9422690  70.3209020  44.8601030  42.7073600  69.5147090  45.8879970
  43.7234830  72.1944780  46.4469820  43.3948190  71.3796540  46.0671550
  44.6717130  72.1514590  46.3235510  40.5637670  70.9043750  44.0021010
  39.7809460  71.3789250  44.2817770  40.2700600  69.9998580  43.8934190
  45.1158740  71.6066850  42.0470100  45.5566830  71.5511950  41.1991700
  44.8466330  72.5224860  42.1180280  46.9797310  71.2382090  40.0578920
  46.9185710  70.2943310  39.9109940  47.7589340  71.3462180  40.6032380
  31.9078080  71.2091230  36.5234730  32.6657440  71.3220110  35.9498760
  31.4455250  72.0460430  36.4778160  38.4491890  73.3230500  39.5137040
  37.6366400  72.9487390  39.1732920  38.9533530  72.5675580  39.8158230
  42.9516870  69.9872950  40.7520110  43.5546240  70.5593160  41.2268630
  42.2109860  70.5512390  40.5294010  46.0951470  70.3894510  36.0260390
  46.2902100  71.2877960  36.2927820  45.3081340  70.1581590  36.5193340
  34.2803230  71.7355280  35.0636700  34.8095990  70.9485080  34.9344650
  34.9131550  72.4146470  35.2972230  36.4741070  71.4730420  38.1182090
  35.8443810  70.7717730  38.2852220  35.9346210  72.2334550  37.9015250
  36.5996630  70.7514400  50.5534580  36.3180900  71.2548000  49.7895400
  36.9816330  69.9536150  50.1876710  43.2012090  70.1667980  51.1315050
  43.0877540  70.4862590  52.0266570  44.0181830  70.5680490  50.8352330
  42.1070240  78.1860450  21.4949790  42.0264290  77.2715060  21.2241500
  41.6934660  78.6827520  20.7889500  40.2388280  79.9639470  23.3759060
  39.4630380  79.4839910  23.6657630  40.8901210  79.2845120  23.2015220
  34.2554110  80.2759280  24.2534820  33.4238990  80.0207990  24.6531330
  34.8635090  80.3470050  24.9892740  32.6646060  75.2361170  18.0377210
  31.7762760  75.5777140  17.9357090  32.9487250  75.0361490  17.1458040
  30.6279070  77.8366820  23.9216910  31.1995180  77.0689020  23.9220550
  30.6280610  78.1355580  23.0123520  31.8703940  73.2451180  25.7085840
  31.6906780  72.3476930  25.9888600  31.4684020  73.7923050  26.3832790
  40.7102440  75.4467040  23.6098150  41.0867260  74.5738920  23.4971820
  40.6121950  75.7825740  22.7188590  34.8407450  73.8192670  19.0715590
  34.9474200  74.7196400  19.3784350  33.9299810  73.7710640  18.7810240
  44.4926560  72.9417480  20.5426490  45.3136180  72.4514050  20.5851970
  44.5260640  73.5315140  21.2958330  32.4890610  75.7411680  24.3168180
  33.1700720  76.0050050  24.9355580  32.1738660  74.9012550  24.6506190
  36.6815180  76.7879040  23.4040770  37.1893400  77.2860010  24.0445790
  37.2128420  76.0114240  23.2280130  48.7826110  74.9584230  27.1070120
  48.0778280  75.3465940  26.5885230  49.0484030  75.6534520  27.7091050
  34.9651280  71.4277600  27.6704190  34.9669720  71.9449990  26.8650090
  34.1355590  70.9507780  27.6474120  44.7288040  74.8817860  23.3154030
  44.0243610  75.1702750  23.8957140  45.0900200  75.6917970  22.9553590
  34.6466610  73.1387560  25.6774640  34.9883420  73.9829610  25.3828510
  33.7082420  73.2871300  25.7939980  47.7974960  74.3272650  23.7063240
  46.8499870  74.3611630  23.8378670  48.1224950  75.1411600  24.0912600
  38.3294500  70.6269830  22.0019230  38.6369480  70.0716720  21.2854730
  37.3995200  70.7614290  21.8192220  40.7175260  78.6918660  18.7379350
  39.7904540  78.6256040  18.9667820  40.8700080  79.6298790  18.6234590
  40.7044340  74.9635660  15.7346510  39.7648010  75.1249620  15.8198970
  41.0227600  75.6821340  15.1882500  47.2257100  79.6454180  25.7125540
  46.3975730  79.7147270  25.2375670  47.8207580  80.2308490  25.2441370
  44.7472550  80.2538960  19.2414600  44.1284970  79.9158510  18.5940900
  44.7297000  79.6098720  19.9493790  44.1899110  76.4323500  26.6580410
  43.7770290  77.2577210  26.9120400  43.4575060  75.8468540  26.4656770
  36.3231900  79.2183400  21.5199080  35.9188900  78.5060650  21.0244980
  36.4095020  78.8736640  22.4087120  35.0360520  75.9926610  25.2998120
  35.5875110  76.1021950  24.5251370  35.5504030  76.3664210  26.0153350
  42.9237250  79.4925770  16.2487350  43.3630530  78.6548200  16.1025170
  43.6365670  80.1255170  16.3351490  34.7103250  79.5145970  28.9103460
  34.5711020  80.3868770  29.2790860  33.8284610  79.1718780  28.7651400
  46.5054390  70.7468580  14.5628390  46.1927050  70.8395410  15.4627460
  47.2666860  71.3249610  14.5125820  33.0236530  78.1128380  19.0205730
  32.9034130  78.8390470  18.4087000  32.7137420  77.3431290  18.5433640
  47.7155680  75.4840080  30.5402530  47.0999950  75.9919750  30.0117990
  47.3952100  74.5838410  30.4828470  35.4900190  71.4563450  22.4029400
  35.0468340  72.2372990  22.0713920  36.0485180  71.7793340  23.1100340
  39.7770000  74.3231970  28.0064720  39.3149370  74.5314990  28.8184660
  39.3748110  73.5091320  27.7035390  44.7774510  75.5440920  29.1361380
  43.9268100  75.2446670  29.4570450  44.6176300  75.7882930  28.2245200
  41.8724220  77.0442670  31.2360170  42.1977630  76.2106420  30.8962400
  42.6604550  77.5671190  31.3838500  38.6059010  71.0774150  17.2835230
  37.9813190  71.0734020  18.0088540  38.5189130  70.2105110  16.8871200
  37.5276090  72.0010780  24.2619000  37.8248420  72.9073610  24.1811020
  38.0761650  71.5129560  23.6478570  35.2814410  76.5797020  20.1310650
  35.0555330  76.3634190  21.0357270  34.5006940  77.0125480  19.7856620
  42.5112170  76.5860390  18.7301300  41.9121060  77.3096190  18.5464920
  43.0591780  76.5237170  17.9477750  37.7213620  77.4782600  30.7970920
  37.6257220  76.5377330  30.6471320  38.5645600  77.6997670  30.4018990
  41.1177040  75.2223930  20.7604580  41.5106610  75.5396130  19.9473270
  41.4793890  74.3435810  20.8749100  32.8524160  73.8896270  28.9504700
  32.4587550  74.7371480  29.1577480  32.1642560  73.2522640  29.1413340
  39.4269210  73.9731240  32.0201440  38.7367530  73.7803440  32.6547530
  40.1701510  74.2565880  32.5525740  30.1541210  71.8124730  22.9834780
  29.8654260  72.3827590  23.6959760  30.8986970  71.3329180  23.3466010
  30.3411440  75.7544850  14.1937500  30.2586110  76.6975610  14.3352490
  29.9894500  75.6119760  13.3149850  41.7032180  77.8129680  24.8555360
  40.9713300  78.3216490  25.2045460  41.3056520  76.9959660  24.5544140
  38.1409570  74.4883880  23.2607850  38.1445630  74.0473830  22.4112390
  39.0360690  74.8101210  23.3679670  33.9911950  74.3710370  22.2202060
  33.6512000  74.8485600  22.9769110  33.2289270  73.9175490  21.8603160
  38.2029720  75.4895960  16.2514610  38.3242540  75.4482440  17.2000430
  37.8178230  76.3520110  16.0961340  42.1658090  73.2663360  24.2678300
  42.1830830  73.7172010  25.1120150  41.9173670  72.3669000  24.4811740
  37.2151220  77.7997100  15.6497910  36.6468120  77.3515350  15.0233820
  37.9240220  78.1589880  15.1163060  45.5928840  70.6795540  30.1064680
  45.9174610  69.9485200  30.6322660  45.6285350  70.3609180  29.2045670
  38.4417540  78.5485660  25.0073260  38.8087670  78.0744230  25.7534600
  38.2522600  79.4227230  25.3481600  31.3058030  73.2929350  21.1366730
  31.0204950  72.9285020  21.9745350  31.2436890  72.5609810  20.5229870
  36.2316910  77.5894300  27.3257470  35.9273980  78.4686280  27.5507830
  37.1863370  77.6494090  27.3614910  40.9796620  72.1858610  17.8580100
  40.1661230  71.6871780  17.7825410  40.7858570  73.0256860  17.4416450
  40.9005480  80.8629710  29.6019710  40.8342790  79.9425380  29.3477300
  40.2710620  80.9605150  30.3164350  43.6945010  76.5578260  16.1542260
  44.5824630  76.8695490  15.9793600  43.6650100  75.6850510  15.7622840
  32.2880640  78.4297040  28.4728830  31.9295580  79.0950890  29.0602170
  31.9935200  77.5980590  28.8441450  35.4893760  78.8881280  31.3568380
  35.1893900  79.0338460  30.4596200  36.2605000  78.3286570  31.2641770
  45.9659280  77.8690100  15.6222120  45.8823000  78.3004320  14.7718560
  46.6853470  78.3288450  16.0548940  47.0433420  80.3257620  28.6992090
  46.3181610  80.9186400  28.5021480  47.5708880  80.3181160  27.9005460
  30.7988690  78.4288300  15.0963430  31.6683540  78.7113100  15.3799350
  30.3079010  79.2424170  14.9812240  37.9623500  79.8161510  19.2171710
  38.4186280  80.6266760  19.4431900  37.6111710  79.4984650  20.0490200
  33.8635280  70.1599160  19.6894230  33.7349910  70.1517060  20.6379150
  33.0397300  70.4982250  19.3385240  30.8629210  71.9190280  29.1500930
  30.1487730  72.1187200  29.7553540  31.2824250  71.1429850  29.5215730
  32.7835200  80.2461770  17.2245490  32.1763150  80.9860670  17.2340790
  33.2584550  80.3361130  16.3983690  42.3567990  74.4112590  26.9002380
  42.7248810  73.5907800  27.2281950  41.4966190  74.4714480  27.3158030
  45.7230020  73.3669530  17.7089940  45.0943180  73.4715200  16.9948170
  45.2281940  73.5866310  18.4983820  37.6914050  75.6455480  19.1247820
  36.9830200  76.1141820  19.5661430  37.9758530  74.9877490  19.7593010
  39.3169980  77.0652180  27.1240350  39.8155230  77.5398000  27.7892200
  39.4592930  76.1415700  27.3310380  41.7229480  72.3706140  20.5643610
  41.5997260  72.3892270  19.6153120  42.6714040  72.4185080  20.6842010
  35.8949070  73.9540560  16.4998530  36.7439600  74.3910710  16.4338720
  35.5280340  74.2660820  17.3270590  46.5236840  73.2820140  27.9668740
  46.0210440  74.0225540  28.3062550  47.3393500  73.6704140  27.6505530
  44.8158850  78.5253320  21.4130100  43.8748990  78.5403550  21.5877790
  45.1302920  77.7389280  21.8590400  34.7940490  80.2072920  14.9734060
  35.5603760  80.0954280  15.5359490  34.8715180  79.5110890  14.3210830
  33.4887250  77.6397990  15.6566950  33.5690840  76.6925500  15.7684350
  34.3807000  77.9704870  15.7627610  31.0158050  79.4612910  30.8923120
  31.5197070  78.8820190  31.4639350  30.2765470  79.7453140  31.4299490
  33.0481130  77.6042500  31.7873190  33.0886470  77.3056370  32.6958420
  33.9026630  78.0050110  31.6280710  36.8259520  80.2038050  16.9476700
  37.2475940  80.0377920  17.7908090  36.9510360  79.3938280  16.4531840
  34.9886940  76.1834600  29.7547680  34.4583400  75.6925550  29.1271020
  35.6575010  76.6118800  29.2205610  39.3387160  79.2275660  14.1953800
  39.8592820  78.5124680  13.8294950  39.9855560  79.8661530  14.4954310
  43.8865000  80.6504060  29.5188870  44.3006020  80.8049140  30.3679290
  42.9516000  80.7759280  29.6814650  44.3587170  77.9900220  31.5228020
  44.9407940  77.2352540  31.4348500  44.5348940  78.5207660  30.7459500
  35.4759240  73.1496970  29.8344970  35.3816110  72.5317720  29.1095840
  34.8956630  73.8763260  29.6074880  38.2420680  71.7070210  26.8672360
  37.7937980  71.7294470  26.0217910  37.6085880  71.3089230  27.4642660
  40.9844130  78.3340720  28.8722640  41.1040340  77.7381860  29.6117480
  41.8438130  78.3710410  28.4523940  43.3232030  78.8877910  27.4485150
  42.7967250  79.4120530  26.8450290  43.6663370  79.5205300  28.0794880
  35.7218420  76.2771280  13.8934860  35.5207480  75.4138640  14.2548200
  35.5510470  76.1904640  12.9556460  37.7512900  74.8762070  30.1298460
  38.3412590  74.5677920  30.8176280  36.9333140  74.4041820  30.2858360
  42.5706330  74.4927880  30.3631480  41.8821850  73.8309420  30.2981470
  43.2912350  74.0466150  30.8079940  43.2006730  71.0879510  16.4221740
  43.4809020  70.2447410  16.7781160  42.4272460  71.3202620  16.9360490
  34.5201220  73.3771900  13.8812740  34.8227120  73.3839330  12.9731890
  35.2595810  73.0269760  14.3780400  37.7386150  72.3206520  14.8668940
  37.3908150  71.6430510  14.2871390  37.9398920  71.8596030  15.6812330
  47.5787450  80.3256240  17.0325650  48.3406360  80.8952890  17.1385340
  47.5941820  79.7583440  17.8033960  31.0791790  78.8494170  21.2633310
  30.4240630  78.5805810  20.6193010  31.9169740  78.7398650  20.8135290
  44.0282230  73.6435460  15.4851800  44.4467110  73.4566440  14.6448460
  43.7218290  72.7914510  15.7954730  47.5271960  78.5559600  19.1827600
  47.1515560  77.7887530  18.7508890  46.7975080  78.9382300  19.6702530
  32.1167720  79.2346740  25.8036650  32.4840760  79.1474140  26.6832670
  31.5478540  78.4713290  25.7043510  46.9171580  77.7031120  28.8167120
  46.6857670  77.4743870  27.9165070  47.1776130  78.6230670  28.7712010
  31.6683720  76.1455830  29.7095070  30.7739770  76.1122590  30.0488780
  32.2081270  76.3442620  30.4746320  45.3559650  72.9287550  31.5946820
  46.2329830  72.9370950  31.9780820  45.3680490  72.1918390  30.9839170
  30.2929870  76.0593100  17.2058640  29.3893950  76.3223300  17.0310300
  30.7770490  76.3304270  16.4258600  46.8022920  76.7817090  22.4834840
  47.3260400  76.2879740  21.8525010  47.3882340  76.9167450  23.2282410
  46.9812640  76.8656960  26.0054390  46.0315350  76.8320500  26.1199380
  47.1625650  77.7757070  25.7704160  32.8357080  75.1158640  15.1153020
  33.5448780  74.6941860  14.6300300  32.1197020  75.1833870  14.4836370
  32.4831240  71.1697970  14.1555670  33.2059370  71.7106910  14.4736890
  32.7555760  70.8961390  13.2797210  46.2922890  76.0390440  18.4227250
  46.7882010  75.8061310  19.2076130  46.0938960  75.2002280  18.0064890
  32.1723430  70.4204160  24.0578290  32.8199620  69.8701540  23.6173450
  32.5925270  70.6747310  24.8794100  47.7210050  74.6751390  20.9564930
  47.6109330  74.5207430  21.8947200  48.4817640  74.1472330  20.7140340
  46.0675770  70.6145520  27.4147930  46.7047990  71.2279660  27.7807120
  46.2150660  70.6506180  26.4697160  48.6100320  72.5059310  14.1971070
  49.5349630  72.3740490  13.9889360  48.5876110  72.5852130  15.1507520
  48.6838810  73.2769970  16.8227780  47.8890310  73.2115090  17.3520690
  48.8882090  74.2120610  16.8113130  31.9255430  70.5759830  26.8003610
  31.5770250  71.0323650  27.5661790  31.5943130  69.6816960  26.8826040
  39.4380250  71.7671710  30.3223030  39.3769140  72.3593540  31.0718440
  40.3780630  71.6597670  30.1773290  42.0754810  71.4241770  29.9615320
  42.6895220  71.7421060  29.2996400  42.6204370  70.9390360  30.5811180
  32.5976070  70.1036030  30.0754380  33.1459060  69.9224080  29.3120490
  32.6631380  69.3130140  30.6110690  42.8162850  69.9873910  26.2884610
  41.9422690  70.3209020  26.0857540  42.7073600  69.5147090  27.1136480
  43.7234830  72.1944780  27.6726330  43.3948190  71.3796540  27.2928060
  44.6717130  72.1514590  27.5492020  40.5637670  70.9043750  25.2277520
  39.7809460  71.3789250  25.5074280  40.2700600  69.9998580  25.1190700
  45.1158740  71.6066850  23.2726610  45.5566830  71.5511950  22.4248210
  44.8466330  72.5224860  23.3436790  46.9797310  71.2382090  21.2835430
  46.9185710  70.2943310  21.1366450  47.7589340  71.3462180  21.8288890
  31.9078080  71.2091230  17.7491240  32.6657440  71.3220110  17.1755270
  31.4455250  72.0460430  17.7034670  38.4491890  73.3230500  20.7393550
  37.6366400  72.9487390  20.3989430  38.9533530  72.5675580  21.0414740
  42.9516870  69.9872950  21.9776620  43.5546240  70.5593160  22.4525140
  42.2109860  70.5512390  21.7550520  46.0951470  70.3894510  17.2516900
  46.2902100  71.2877960  17.5184330  45.3081340  70.1581590  17.7449850
  34.2803230  71.7355280  16.2893210  34.8095990  70.9485080  16.1601160
  34.9131550  72.4146470  16.5228740  36.4741070  71.4730420  19.3438600
  35.8443810  70.7717730  19.5108730  35.9346210  72.2334550  19.1271760
  36.5996630  70.7514400  31.7791090  36.3180900  71.2548000  31.0151910
  36.9816330  69.9536150  31.4133220  43.2012090  70.1667980  32.3571560
  43.0877540  70.4862590  33.2523080  44.0181830  70.5680490  32.0608840
  42.1070240  78.1860450   2.7206300  42.0264290  77.2715060   2.4498010
  41.6934660  78.6827520   2.0146010  40.2388280  79.9639470   4.6015570
  39.4630380  79.4839910   4.8914140  40.8901210  79.2845120   4.4271730
  34.2554110  80.2759280   5.4791330  33.4238990  80.0207990   5.8787840
  34.8635090  80.3470050   6.2149250  30.6279070  77.8366820   5.1473420
  31.1995180  77.0689020   5.1477060  30.6280610  78.1355580   4.2380030
  31.8703940  73.2451180   6.9342350  31.6906780  72.3476930   7.2145110
  31.4684020  73.7923050   7.6089300  40.7102440  75.4467040   4.8354660
  41.0867260  74.5738920   4.7228330  40.6121950  75.7825740   3.9445100
  44.4926560  72.9417480   1.7683000  45.3136180  72.4514050   1.8108480
  44.5260640  73.5315140   2.5214840  32.4890610  75.7411680   5.5424690
  33.1700720  76.0050050   6.1612090  32.1738660  74.9012550   5.8762700
  36.6815180  76.7879040   4.6297280  37.1893400  77.2860010   5.2702300
  37.2128420  76.0114240   4.4536640  48.7826110  74.9584230   8.3326630
  48.0778280  75.3465940   7.8141740  49.0484030  75.6534520   8.9347560
  34.9651280  71.4277600   8.8960700  34.9669720  71.9449990   8.0906600
  34.1355590  70.9507780   8.8730630  44.7288040  74.8817860   4.5410540
  44.0243610  75.1702750   5.1213650  45.0900200  75.6917970   4.1810100
  34.6466610  73.1387560   6.9031150  34.9883420  73.9829610   6.6085020
  33.7082420  73.2871300   7.0196490  47.7974960  74.3272650   4.9319750
  46.8499870  74.3611630   5.0635180  48.1224950  75.1411600   5.3169110
  38.3294500  70.6269830   3.2275740  38.6369480  70.0716720   2.5111240
  37.3995200  70.7614290   3.0448730  47.2257100  79.6454180   6.9382050
  46.3975730  79.7147270   6.4632180  47.8207580  80.2308490   6.4697880
  44.1899110  76.4323500   7.8836920  43.7770290  77.2577210   8.1376910
  43.4575060  75.8468540   7.6913280  36.3231900  79.2183400   2.7455590
  35.9188900  78.5060650   2.2501490  36.4095020  78.8736640   3.6343630
  35.0360520  75.9926610   6.5254630  35.5875110  76.1021950   5.7507880
  35.5504030  76.3664210   7.2409860  34.7103250  79.5145970  10.1359970
  34.5711020  80.3868770  10.5047370  33.8284610  79.1718780   9.9907910
  47.7155680  75.4840080  11.7659040  47.0999950  75.9919750  11.2374500
  47.3952100  74.5838410  11.7084980  35.4900190  71.4563450   3.6285910
  35.0468340  72.2372990   3.2970430  36.0485180  71.7793340   4.3356850
  39.7770000  74.3231970   9.2321230  39.3149370  74.5314990  10.0441170
  39.3748110  73.5091320   8.9291900  44.7774510  75.5440920  10.3617890
  43.9268100  75.2446670  10.6826960  44.6176300  75.7882930   9.4501710
  41.8724220  77.0442670  12.4616680  42.1977630  76.2106420  12.1218910
  42.6604550  77.5671190  12.6095010  37.5276090  72.0010780   5.4875510
  37.8248420  72.9073610   5.4067530  38.0761650  71.5129560   4.8735080
  37.7213620  77.4782600  12.0227430  37.6257220  76.5377330  11.8727830
  38.5645600  77.6997670  11.6275500  32.8524160  73.8896270  10.1761210
  32.4587550  74.7371480  10.3833990  32.1642560  73.2522640  10.3669850
  39.4269210  73.9731240  13.2457950  38.7367530  73.7803440  13.8804040
  40.1701510  74.2565880  13.7782250  30.1541210  71.8124730   4.2091290
  29.8654260  72.3827590   4.9216270  30.8986970  71.3329180   4.5722520
  41.7032180  77.8129680   6.0811870  40.9713300  78.3216490   6.4301970
  41.3056520  76.9959660   5.7800650  38.1409570  74.4883880   4.4864360
  38.1445630  74.0473830   3.6368900  39.0360690  74.8101210   4.5936180
  33.9911950  74.3710370   3.4458570  33.6512000  74.8485600   4.2025620
  33.2289270  73.9175490   3.0859670  42.1658090  73.2663360   5.4934810
  42.1830830  73.7172010   6.3376660  41.9173670  72.3669000   5.7068250
  45.5928840  70.6795540  11.3321190  45.9174610  69.9485200  11.8579170
  45.6285350  70.3609180  10.4302180  38.4417540  78.5485660   6.2329770
  38.8087670  78.0744230   6.9791110  38.2522600  79.4227230   6.5738110
  31.3058030  73.2929350   2.3623240  31.0204950  72.9285020   3.2001860
  31.2436890  72.5609810   1.7486380  36.2316910  77.5894300   8.5513980
  35.9273980  78.4686280   8.7764340  37.1863370  77.6494090   8.5871420
  40.9005480  80.8629710  10.8276220  40.8342790  79.9425380  10.5733810
  40.2710620  80.9605150  11.5420860  32.2880640  78.4297040   9.6985340
  31.9295580  79.0950890  10.2858680  31.9935200  77.5980590  10.0697960
  35.4893760  78.8881280  12.5824890  35.1893900  79.0338460  11.6852710
  36.2605000  78.3286570  12.4898280  47.0433420  80.3257620   9.9248600
  46.3181610  80.9186400   9.7277990  47.5708880  80.3181160   9.1261970
  30.8629210  71.9190280  10.3757440  30.1487730  72.1187200  10.9810050
  31.2824250  71.1429850  10.7472240  42.3567990  74.4112590   8.1258890
  42.7248810  73.5907800   8.4538460  41.4966190  74.4714480   8.5414540
  39.3169980  77.0652180   8.3496860  39.8155230  77.5398000   9.0148710
  39.4592930  76.1415700   8.5566890  46.5236840  73.2820140   9.1925250
  46.0210440  74.0225540   9.5319060  47.3393500  73.6704140   8.8762040
  44.8158850  78.5253320   2.6386610  43.8748990  78.5403550   2.8134300
  45.1302920  77.7389280   3.0846910  31.0158050  79.4612910  12.1179630
  31.5197070  78.8820190  12.6895860  30.2765470  79.7453140  12.6556000
  33.0481130  77.6042500  13.0129700  33.0886470  77.3056370  13.9214930
  33.9026630  78.0050110  12.8537220  34.9886940  76.1834600  10.9804190
  34.4583400  75.6925550  10.3527530  35.6575010  76.6118800  10.4462120
  43.8865000  80.6504060  10.7445380  44.3006020  80.8049140  11.5935800
  42.9516000  80.7759280  10.9071160  44.3587170  77.9900220  12.7484530
  44.9407940  77.2352540  12.6605010  44.5348940  78.5207660  11.9716010
  35.4759240  73.1496970  11.0601480  35.3816110  72.5317720  10.3352350
  34.8956630  73.8763260  10.8331390  38.2420680  71.7070210   8.0928870
  37.7937980  71.7294470   7.2474420  37.6085880  71.3089230   8.6899170
  40.9844130  78.3340720  10.0979150  41.1040340  77.7381860  10.8373990
  41.8438130  78.3710410   9.6780450  43.3232030  78.8877910   8.6741660
  42.7967250  79.4120530   8.0706800  43.6663370  79.5205300   9.3051390
  37.7512900  74.8762070  11.3554970  38.3412590  74.5677920  12.0432790
  36.9333140  74.4041820  11.5114870  42.5706330  74.4927880  11.5887990
  41.8821850  73.8309420  11.5237980  43.2912350  74.0466150  12.0336450
  31.0791790  78.8494170   2.4889820  30.4240630  78.5805810   1.8449520
  31.9169740  78.7398650   2.0391800  32.1167720  79.2346740   7.0293160
  32.4840760  79.1474140   7.9089180  31.5478540  78.4713290   6.9300020
  46.9171580  77.7031120  10.0423630  46.6857670  77.4743870   9.1421580
  47.1776130  78.6230670   9.9968520  31.6683720  76.1455830  10.9351580
  30.7739770  76.1122590  11.2745290  32.2081270  76.3442620  11.7002830
  45.3559650  72.9287550  12.8203330  46.2329830  72.9370950  13.2037330
  45.3680490  72.1918390  12.2095680  46.8022920  76.7817090   3.7091350
  47.3260400  76.2879740   3.0781520  47.3882340  76.9167450   4.4538920
  46.9812640  76.8656960   7.2310900  46.0315350  76.8320500   7.3455890
  47.1625650  77.7757070   6.9960670  32.1723430  70.4204160   5.2834800
  32.8199620  69.8701540   4.8429960  32.5925270  70.6747310   6.1050610
  47.7210050  74.6751390   2.1821440  47.6109330  74.5207430   3.1203710
  48.4817640  74.1472330   1.9396850  46.0675770  70.6145520   8.6404440
  46.7047990  71.2279660   9.0063630  46.2150660  70.6506180   7.6953670
  31.9255430  70.5759830   8.0260120  31.5770250  71.0323650   8.7918300
  31.5943130  69.6816960   8.1082550  39.4380250  71.7671710  11.5479540
  39.3769140  72.3593540  12.2974950  40.3780630  71.6597670  11.4029800
  42.0754810  71.4241770  11.1871830  42.6895220  71.7421060  10.5252910
  42.6204370  70.9390360  11.8067690  32.5976070  70.1036030  11.3010890
  33.1459060  69.9224080  10.5377000  32.6631380  69.3130140  11.8367200
  42.8162850  69.9873910   7.5141120  41.9422690  70.3209020   7.3114050
  42.7073600  69.5147090   8.3392990  43.7234830  72.1944780   8.8982840
  43.3948190  71.3796540   8.5184570  44.6717130  72.1514590   8.7748530
  40.5637670  70.9043750   6.4534030  39.7809460  71.3789250   6.7330790
  40.2700600  69.9998580   6.3447210  45.1158740  71.6066850   4.4983120
  45.5566830  71.5511950   3.6504720  44.8466330  72.5224860   4.5693300
  46.9797310  71.2382090   2.5091940  46.9185710  70.2943310   2.3622960
  47.7589340  71.3462180   3.0545400  42.9516870  69.9872950   3.2033130
  43.5546240  70.5593160   3.6781650  42.2109860  70.5512390   2.9807030
  36.5996630  70.7514400  13.0047600  36.3180900  71.2548000  12.2408420
  36.9816330  69.9536150  12.6389730  43.2012090  70.1667980  13.5828070
  43.0877540  70.4862590  14.4779590  44.0181830  70.5680490  13.2865350
  42.1070240  59.4116960  77.8180260  42.0264290  58.4971570  77.5471970
  41.6934660  59.9084030  77.1119970  40.2388280  61.1895980  79.6989530
  39.4630380  60.7096420  79.9888100  40.8901210  60.5101630  79.5245690
  34.2554110  61.5015790  80.5765290  33.4238990  61.2464500  80.9761800
  34.8635090  61.5726560  81.3123210  44.2595710  65.5956170  78.4788660
  43.7977240  64.8243410  78.8075830  45.0721260  65.6222240  78.9841110
  34.2355370  65.5355880  80.7723310  34.5383410  64.6453620  80.5933530
  34.9798960  66.0926100  80.5445560  32.6646060  56.4617680  74.3607680
  31.7762760  56.8033650  74.2587560  32.9487250  56.2618000  73.4688510
  30.6279070  59.0623330  80.2447380  31.1995180  58.2945530  80.2451020
  30.6280610  59.3612090  79.3353990  40.4859020  67.8814180  78.0992650
  39.8670460  68.3371680  77.5287090  41.3410800  68.0365640  77.6982350
  39.6797270  63.8653170  79.7059690  39.6105550  62.9243110  79.5448820
  40.4417130  63.9554580  80.2782260  40.7102440  56.6723550  79.9328620
  41.0867260  55.7995430  79.8202290  40.6121950  57.0082250  79.0419060
  34.8407450  55.0449180  75.3946060  34.9474200  55.9452910  75.7014820
  33.9299810  54.9967150  75.1040710  44.4926560  54.1673990  76.8656960
  45.3136180  53.6770560  76.9082440  44.5260640  54.7571650  77.6188800
  32.4890610  56.9668190  80.6398650  33.1700720  57.2306560  81.2586050
  32.1738660  56.1269060  80.9736660  36.6815180  58.0135550  79.7271240
  37.1893400  58.5116520  80.3676260  37.2128420  57.2370750  79.5510600
  41.3522370  62.7653420  75.4924560  40.7339640  63.2302870  74.9287280
  41.8645620  63.4580900  75.9094070  44.7288040  56.1074370  79.6384500
  44.0243610  56.3959260  80.2187610  45.0900200  56.9174480  79.2784060
  30.7205570  63.4509950  72.8664190  30.3433550  63.9397050  72.1349090
  30.9778640  64.1235230  73.4970720  46.3450820  65.7249500  81.9011980
  45.6614340  66.3948610  81.8928650  46.8845110  65.9230150  81.1356840
  47.7974960  55.5529160  80.0293710  46.8499870  55.5868140  80.1609140
  48.1224950  56.3668110  80.4143070  38.3294500  51.8526340  78.3249700
  38.6369480  51.2973230  77.6085200  37.3995200  51.9870800  78.1422690
  43.8809560  67.5693630  80.6157160  43.8936720  67.1655920  79.7479420
  43.3284780  68.3440920  80.5118590  45.1754980  64.2909850  75.7047330
  45.0651310  63.3484180  75.8296750  45.1723230  64.6525490  76.5910090
  40.7175260  59.9175170  75.0609820  39.7904540  59.8512550  75.2898290
  40.8700080  60.8555300  74.9465060  40.7044340  56.1892170  72.0576980
  39.7648010  56.3506130  72.1429440  41.0227600  56.9077850  71.5112970
  47.2257100  60.8710690  82.0356010  46.3975730  60.9403780  81.5606140
  47.8207580  61.4565000  81.5671840  44.7472550  61.4795470  75.5645070
  44.1284970  61.1415020  74.9171370  44.7297000  60.8355230  76.2724260
  36.3231900  60.4439910  77.8429550  35.9188900  59.7317160  77.3475450
  36.4095020  60.0993150  78.7317590  36.7913600  64.1307470  80.0068760
  36.4941890  63.5252940  79.3276540  37.7413420  64.1684780  79.8958120
  42.9237250  60.7182280  72.5717820  43.3630530  59.8804710  72.4255640
  43.6365670  61.3511680  72.6581960  41.0332630  65.6578350  76.5399060
  41.4728540  66.4002680  76.1254450  40.9719520  65.9004920  77.4638020
  46.5054390  51.9725090  70.8858860  46.1927050  52.0651920  71.7857930
  47.2666860  52.5506120  70.8356290  33.0236530  59.3384890  75.3436200
  32.9034130  60.0646980  74.7317470  32.7137420  58.5687800  74.8664110
  30.6621900  62.5100030  81.1504840  30.7402320  62.6448800  80.2060560
  31.2763580  61.8015920  81.3432960  31.9069530  64.2100220  77.5611020
  31.4997610  64.3514810  76.7064620  32.7982540  63.9260380  77.3582230
  43.7002810  68.6447470  73.8962070  43.5403950  68.3550410  74.7943900
  43.5349520  67.8687600  73.3607300  36.1791190  68.4246000  75.6733690
  36.0033670  67.5081540  75.4601490  35.3246930  68.7833290  75.9131490
  43.4028940  66.1535030  72.4560070  42.7094100  66.1512320  71.7962350
  44.1451800  65.7294350  72.0254240  42.9678870  67.7797740  76.5308560
  43.4235820  66.9987120  76.8447180  43.3071390  68.4904560  77.0749740
  35.4900190  52.6819960  78.7259870  35.0468340  53.4629500  78.3944390
  36.0485180  53.0049850  79.4330810  38.6059010  52.3030660  73.6065700
  37.9813190  52.2990530  74.3319010  38.5189130  51.4361620  73.2101670
  37.5276090  53.2267290  80.5849470  37.8248420  54.1330120  80.5041490
  38.0761650  52.7386070  79.9709040  35.2814410  57.8053530  76.4541120
  35.0555330  57.5890700  77.3587740  34.5006940  58.2381990  76.1087090
  42.5112170  57.8116900  75.0531770  41.9121060  58.5352700  74.8695390
  43.0591780  57.7493680  74.2708220  41.1177040  56.4480440  77.0835050
  41.5106610  56.7652640  76.2703740  41.4793890  55.5692320  77.1979570
  30.1541210  53.0381240  79.3065250  29.8654260  53.6084100  80.0190230
  30.8986970  52.5585690  79.6696480  30.3411440  56.9801360  70.5167970
  30.2586110  57.9232120  70.6582960  29.9894500  56.8376270  69.6380320
  41.7032180  59.0386190  81.1785830  40.9713300  59.5473000  81.5275930
  41.3056520  58.2216170  80.8774610  38.1409570  55.7140390  79.5838320
  38.1445630  55.2730340  78.7342860  39.0360690  56.0357720  79.6910140
  33.9911950  55.5966880  78.5432530  33.6512000  56.0742110  79.2999580
  33.2289270  55.1432000  78.1833630  38.2029720  56.7152470  72.5745080
  38.3242540  56.6738950  73.5230900  37.8178230  57.5776620  72.4191810
  42.1658090  54.4919870  80.5908770  42.1830830  54.9428520  81.4350620
  41.9173670  53.5925510  80.8042210  37.2151220  59.0253610  71.9728380
  36.6468120  58.5771860  71.3464290  37.9240220  59.3846390  71.4393530
  31.3058030  54.5185860  77.4597200  31.0204950  54.1541530  78.2975820
  31.2436890  53.7866320  76.8460340  34.7598700  63.0211800  74.2454790
  33.9860960  62.4809420  74.0853510  35.4893330  62.5018410  73.9072550
  45.5186680  62.0177160  80.0381180  46.2385800  62.5132450  79.6477290
  45.3168500  61.3395050  79.3935050  40.9796620  53.4115120  74.1810570
  40.1661230  52.9128290  74.1055880  40.7858570  54.2513370  73.7646920
  43.6945010  57.7834770  72.4772730  44.5824630  58.0952000  72.3024070
  43.6650100  56.9107020  72.0853310  34.8036100  62.6892180  77.8833600
  35.3214770  61.8860440  77.8290490  34.3520120  62.6271320  78.7250430
  39.6905600  63.9558460  73.1560900  40.0321300  64.7000690  72.6604220
  38.8618310  64.2689580  73.5185730  45.9659280  59.0946610  71.9452590
  45.8823000  59.5260830  71.0949030  46.6853470  59.5544960  72.3779410
  46.9946530  65.9488870  74.6734720  46.3522690  65.2944490  74.9478440
  46.6077190  66.3543960  73.8975390  42.5733010  63.2774300  78.5206410
  42.9256830  62.6802430  77.8607780  41.6895340  62.9518530  78.6914660
  38.6596290  64.0371990  75.9276820  39.3467420  64.5841200  76.3084410
  37.8728710  64.5812720  75.9626430  30.7988690  59.6544810  71.4193900
  31.6683540  59.9369610  71.7029820  30.3079010  60.4680680  71.3042710
  37.9623500  61.0418020  75.5402180  38.4186280  61.8523270  75.7662370
  37.6111710  60.7241160  76.3720670  33.8635280  51.3855670  76.0124700
  33.7349910  51.3773570  76.9609620  33.0397300  51.7238760  75.6615710
  41.5388190  64.5556710  81.4871930  42.1810420  63.8549870  81.6004100
  42.0637540  65.3355150  81.3068820  45.3843910  64.8405330  71.2111070
  45.1581490  64.1235770  71.8035710  44.9940110  64.5917770  70.3732820
  31.1659940  68.8672190  71.9855530  31.5257580  69.4661530  71.3312800
  31.0252280  69.4132080  72.7590560  44.9660160  62.7577270  72.8725230
  44.6781860  63.2189960  73.6603110  45.7612330  62.2975040  73.1409450
  37.1828560  66.2503390  72.8029200  37.1738660  66.9833080  72.1873710
  36.2626920  66.0034970  72.8956160  32.7835200  61.4718280  73.5475960
  32.1763150  62.2117180  73.5571260  33.2584550  61.5617640  72.7214160
  45.7230020  54.5926040  74.0320410  45.0943180  54.6971710  73.3178640
  45.2281940  54.8122820  74.8214290  40.1688160  66.3131630  71.4654390
  40.2700140  66.1095620  70.5356370  39.2689900  66.0589910  71.6702170
  37.6914050  56.8711990  75.4478290  36.9830200  57.3398330  75.8891900
  37.9758530  56.2134000  76.0823480  41.7229480  53.5962650  76.8874080
  41.5997260  53.6148780  75.9383590  42.6714040  53.6441590  77.0072480
  38.8106270  68.8317950  76.1602060  39.0647770  68.7939340  75.2381430
  37.8618750  68.7051280  76.1530310  35.8949070  55.1797070  72.8229000
  36.7439600  55.6167220  72.7569190  35.5280340  55.4917330  73.6501060
  44.8158850  59.7509830  77.7360570  43.8748990  59.7660060  77.9108260
  45.1302920  58.9645790  78.1820870  34.7940490  61.4329430  71.2964530
  35.5603760  61.3210790  71.8589960  34.8715180  60.7367400  70.6441300
  33.4887250  58.8654500  71.9797420  33.5690840  57.9182010  72.0914820
  34.3807000  59.1961380  72.0858080  46.8184430  66.9218680  79.4114830
  46.9431850  67.7449850  79.8838640  47.6849990  66.7109410  79.0638980
  34.2901960  69.0149890  79.0831960  35.0264440  68.4665350  79.3540530
  34.6742880  69.8805900  78.9437950  31.1747440  65.0823460  74.9573470
  30.2487220  65.3244600  74.9478880  31.6403870  65.9097720  74.8358220
  37.4004270  68.1880200  70.9057530  38.1932880  68.4769030  70.4539320
  36.8808620  67.7572370  70.2270010  46.4534440  67.4150330  72.3294270
  46.1675950  67.0015470  71.5148450  46.2553990  68.3438040  72.2094790
  37.9181670  63.4083610  70.7699880  37.8132310  62.7935960  71.4961260
  37.7505890  62.8849500  69.9862890  41.1584400  62.4703640  71.3741870
  40.6094500  62.9172940  72.0184610  41.7803660  61.9652890  71.8979540
  36.8259520  61.4294560  73.2707170  37.2475940  61.2634430  74.1138560
  36.9510360  60.6194790  72.7762310  39.3387160  60.4532170  70.5184270
  39.8592820  59.7381190  70.1525420  39.9855560  61.0918040  70.8184780
  35.7218420  57.5027790  70.2165330  35.5207480  56.6395150  70.5778670
  35.5510470  57.4161150  69.2786930  43.2006730  52.3136020  72.7452210
  43.4809020  51.4703920  73.1011630  42.4272460  52.5459130  73.2590960
  34.5201220  54.6028410  70.2043210  34.8227120  54.6095840  69.2962360
  35.2595810  54.2526270  70.7010870  37.7386150  53.5463030  71.1899410
  37.3908150  52.8687020  70.6101860  37.9398920  53.0852540  72.0042800
  39.9035190  68.5343780  72.8086010  40.7985980  68.8728750  72.8304770
  39.9352820  67.8123190  72.1810290  33.5431350  63.9070830  71.0373010
  33.9806220  64.4500500  71.6930590  34.0279080  63.0817780  71.0469350
  30.7577150  66.6959860  78.4893270  31.0880160  65.8280920  78.2571910
  31.1868150  66.9018380  79.3198230  35.3539070  65.0268870  76.1495240
  35.0534610  64.9033840  77.0499150  35.2476560  64.1677460  75.7410970
  48.1230990  64.8065270  70.8521920  47.2923950  64.8741920  71.3229150
  48.3002820  65.6969390  70.5488780  47.5787450  61.5512750  73.3556120
  48.3406360  62.1209400  73.4615810  47.5941820  60.9839950  74.1264430
  31.0791790  60.0750680  77.5863780  30.4240630  59.8062320  76.9423480
  31.9169740  59.9655160  77.1365760  48.5847420  62.4062850  78.1998050
  48.9556250  61.6230170  77.7934020  49.2249350  63.0951950  78.0215350
  47.6306620  61.8447120  70.5128640  47.9055460  62.7526000  70.3847860
  47.4417360  61.7809650  71.4490630  44.0282230  54.8691970  71.8082270
  44.4467110  54.6822950  70.9678930  43.7218290  54.0171020  72.1185200
  47.5271960  59.7816110  75.5058070  47.1515560  59.0144040  75.0739360
  46.7975080  60.1638810  75.9933000  30.2929870  57.2849610  73.5289110
  29.3893950  57.5479810  73.3540770  30.7770490  57.5560780  72.7489070
  46.8022920  58.0073600  78.8065310  47.3260400  57.5136250  78.1755480
  47.3882340  58.1423960  79.5512880  32.8357080  56.3415150  71.4383490
  33.5448780  55.9198370  70.9530770  32.1197020  56.4090380  70.8066840
  32.4831240  52.3954480  70.4786140  33.2059370  52.9363420  70.7967360
  32.7555760  52.1217900  69.6027680  46.2922890  57.2646950  74.7457720
  46.7882010  57.0317820  75.5306600  46.0938960  56.4258790  74.3295360
  32.1723430  51.6460670  80.3808760  32.8199620  51.0958050  79.9403920
  32.5925270  51.9003820  81.2024570  47.7210050  55.9007900  77.2795400
  47.6109330  55.7463940  78.2177670  48.4817640  55.3728840  77.0370810
  48.6100320  53.7315820  70.5201540  49.5349630  53.5997000  70.3119830
  48.5876110  53.8108640  71.4737990  48.6838810  54.5026480  73.1458250
  47.8890310  54.4371600  73.6751160  48.8882090  55.4377120  73.1343600
  45.6257230  68.5418030  77.1396640  46.2216300  68.2202600  76.4631060
  45.8835380  68.0689850  77.9309910  46.1769440  69.1913330  80.9694370
  45.7172410  69.9429140  80.5952390  45.5481900  68.4719800  80.9109170
  36.6065160  67.5001570  80.1442500  37.1230180  66.8888930  79.6190760
  37.2562540  68.0030350  80.6353510  39.3460660  68.3910060  80.9711480
  39.6338470  68.1364360  80.0944490  39.8583880  67.8387420  81.5617050
  40.5637670  52.1300260  81.5507990  39.7809460  52.6045760  81.8304750
  40.2700600  51.2255090  81.4421170  45.1158740  52.8323360  79.5957080
  45.5566830  52.7768460  78.7478680  44.8466330  53.7481370  79.6667260
  46.9797310  52.4638600  77.6065900  46.9185710  51.5199820  77.4596920
  47.7589340  52.5718690  78.1519360  31.2850060  68.6030960  76.5689850
  31.1172100  67.9701640  77.2671740  30.4184570  68.8090360  76.2184040
  31.9078080  52.4347740  74.0721710  32.6657440  52.5476620  73.4985740
  31.4455250  53.2716940  74.0265140  38.4491890  54.5487010  77.0624020
  37.6366400  54.1743900  76.7219900  38.9533530  53.7932090  77.3645210
  42.9516870  51.2129460  78.3007090  43.5546240  51.7849670  78.7755610
  42.2109860  51.7768900  78.0780990  46.0951470  51.6151020  73.5747370
  46.2902100  52.5134470  73.8414800  45.3081340  51.3838100  74.0680320
  32.8912760  67.2964190  74.0139990  32.3660380  67.6772220  73.3101950
  32.8157340  67.9214960  74.7349700  34.2803230  52.9611790  72.6123680
  34.8095990  52.1741590  72.4831630  34.9131550  53.6402980  72.8459210
  36.4741070  52.6986930  75.6669070  35.8443810  51.9974240  75.8339200
  35.9346210  53.4591060  75.4502230  47.6478080  68.8551730  75.3353930
  47.8230270  68.1689470  74.6914850  46.9499650  69.3798780  74.9430600
  35.4905730  69.2446570  72.8889240  36.2224550  68.9605850  72.3413130
  35.7499400  69.0059850  73.7788620  34.6520520  65.3611300  72.8935570
  34.0229400  65.8296400  73.4421400  34.7668350  64.5160520  73.3281760
  34.2554110  61.5015790  61.8021800  33.4238990  61.2464500  62.2018310
  34.8635090  61.5726560  62.5379720  44.2595710  65.5956170  59.7045170
  43.7977240  64.8243410  60.0332340  45.0721260  65.6222240  60.2097620
  34.2355370  65.5355880  61.9979820  34.5383410  64.6453620  61.8190040
  34.9798960  66.0926100  61.7702070  32.6646060  56.4617680  55.5864190
  31.7762760  56.8033650  55.4844070  32.9487250  56.2618000  54.6945020
  30.6279070  59.0623330  61.4703890  31.1995180  58.2945530  61.4707530
  30.6280610  59.3612090  60.5610500  40.4859020  67.8814180  59.3249160
  39.8670460  68.3371680  58.7543600  41.3410800  68.0365640  58.9238860
  34.8407450  55.0449180  56.6202570  34.9474200  55.9452910  56.9271330
  33.9299810  54.9967150  56.3297220  32.4890610  56.9668190  61.8655160
  33.1700720  57.2306560  62.4842560  32.1738660  56.1269060  62.1993170
  36.2154130  62.2929290  63.3964670  35.8823510  62.9198210  64.0385740
  36.3920810  62.8191170  62.6166340  35.4273230  64.2610090  65.2113850
  36.0447230  64.9361170  64.9298300  34.5666350  64.6698070  65.1201350
  30.7205570  63.4509950  54.0920700  30.3433550  63.9397050  53.3605600
  30.9778640  64.1235230  54.7227230  46.3450820  65.7249500  63.1268490
  45.6614340  66.3948610  63.1185160  46.8845110  65.9230150  62.3613350
  43.8809560  67.5693630  61.8413670  43.8936720  67.1655920  60.9735930
  43.3284780  68.3440920  61.7375100  43.2795000  62.4723470  63.1696280
  43.6963790  62.2583580  62.3349740  44.0034820  62.7296260  63.7404900
  36.7913600  64.1307470  61.2325270  36.4941890  63.5252940  60.5533050
  37.7413420  64.1684780  61.1214630  35.0360520  57.2183120  62.8485100
  35.5875110  57.3278460  62.0738350  35.5504030  57.5920720  63.5640330
  44.8799210  67.7039340  64.8948370  44.4029770  68.5111530  64.7020980
  44.1961000  67.0517670  65.0474580  35.8832030  63.8689160  67.8833070
  34.9860560  64.0929130  68.1306470  35.9084900  63.9924100  66.9344470
  34.7103250  60.7402480  66.4590440  34.5711020  61.6125280  66.8277840
  33.8284610  60.3975290  66.3138380  41.0332630  65.6578350  57.7655570
  41.4728540  66.4002680  57.3510960  40.9719520  65.9004920  58.6894530
  36.5083600  66.6824180  68.6675590  36.4799030  67.0867130  67.8004020
  36.3448570  65.7534540  68.5047190  33.0236530  59.3384890  56.5692710
  32.9034130  60.0646980  55.9573980  32.7137420  58.5687800  56.0920620
  48.4598420  67.4651280  69.9639760  48.9358140  67.9434170  70.6428840
  49.0805580  67.3968770  69.2385260  30.6621900  62.5100030  62.3761350
  30.7402320  62.6448800  61.4317070  31.2763580  61.8015920  62.5689470
  31.9069530  64.2100220  58.7867530  31.4997610  64.3514810  57.9321130
  32.7982540  63.9260380  58.5838740  47.8631670  64.6564130  67.1239770
  47.9894730  64.4176010  66.2056950  47.9053050  63.8248670  67.5961850
  41.7248410  68.3592130  65.6934580  42.2393080  68.2700140  66.4957010
  40.8817490  68.7051830  65.9862490  43.7002810  68.6447470  55.1218580
  43.5403950  68.3550410  56.0200410  43.5349520  67.8687600  54.5863810
  36.1791190  68.4246000  56.8990200  36.0033670  67.5081540  56.6858000
  35.3246930  68.7833290  57.1388000  43.4028940  66.1535030  53.6816580
  42.7094100  66.1512320  53.0218860  44.1451800  65.7294350  53.2510750
  42.9678870  67.7797740  57.7565070  43.4235820  66.9987120  58.0703690
  43.3071390  68.4904560  58.3006250  47.7155680  56.7096590  68.0889510
  47.0999950  57.2176260  67.5604970  47.3952100  55.8094920  68.0315450
  30.7181420  63.5514200  64.9155810  30.8812460  63.0819560  64.0975180
  31.1833870  63.0437760  65.5804650  44.7774510  56.7697430  66.6848360
  43.9268100  56.4703180  67.0057430  44.6176300  57.0139440  65.7732180
  41.8724220  58.2699180  68.7847150  42.1977630  57.4362930  68.4449380
  42.6604550  58.7927700  68.9325480  35.2814410  57.8053530  57.6797630
  35.0555330  57.5890700  58.5844250  34.5006940  58.2381990  57.3343600
  37.7213620  58.7039110  68.3457900  37.6257220  57.7633840  68.1958300
  38.5645600  58.9254180  67.9505970  32.8524160  55.1152780  66.4991680
  32.4587550  55.9627990  66.7064460  32.1642560  54.4779150  66.6900320
  39.4269210  55.1987750  69.5688420  38.7367530  55.0059950  70.2034510
  40.1701510  55.4822390  70.1012720  30.1541210  53.0381240  60.5321760
  29.8654260  53.6084100  61.2446740  30.8986970  52.5585690  60.8952990
  30.3411440  56.9801360  51.7424480  30.2586110  57.9232120  51.8839470
  29.9894500  56.8376270  50.8636830  37.2151220  59.0253610  53.1984890
  36.6468120  58.5771860  52.5720800  37.9240220  59.3846390  52.6650040
  45.5928840  51.9052050  67.6551660  45.9174610  51.1741710  68.1809640
  45.6285350  51.5865690  66.7532650  32.2920400  62.9265630  67.0751620
  31.9075190  62.2859300  67.6734580  32.6032590  63.6301750  67.6446350
  31.3058030  54.5185860  58.6853710  31.0204950  54.1541530  59.5232330
  31.2436890  53.7866320  58.0716850  36.2316910  58.8150810  64.8744450
  35.9273980  59.6942790  65.0994810  37.1863370  58.8750600  64.9101890
  34.7598700  63.0211800  55.4711300  33.9860960  62.4809420  55.3110020
  35.4893330  62.5018410  55.1329060  40.9005480  62.0886220  67.1506690
  40.8342790  61.1681890  66.8964280  40.2710620  62.1861660  67.8651330
  34.8036100  62.6892180  59.1090110  35.3214770  61.8860440  59.0547000
  34.3520120  62.6271320  59.9506940  39.6905600  63.9558460  54.3817410
  40.0321300  64.7000690  53.8860730  38.8618310  64.2689580  54.7442240
  32.2880640  59.6553550  66.0215810  31.9295580  60.3207400  66.6089150
  31.9935200  58.8237100  66.3928430  35.4893760  60.1137790  68.9055360
  35.1893900  60.2594970  68.0083180  36.2605000  59.5543080  68.8128750
  40.8322210  64.9106790  66.9010490  40.8466750  63.9787750  66.6829400
  40.1247310  64.9966550  67.5400260  47.0433420  61.5514130  66.2479070
  46.3181610  62.1442910  66.0508460  47.5708880  61.5437670  65.4492440
  46.9946530  65.9488870  55.8991230  46.3522690  65.2944490  56.1734950
  46.6077190  66.3543960  55.1231900  38.6596290  64.0371990  57.1533330
  39.3467420  64.5841200  57.5340920  37.8728710  64.5812720  57.1882940
  30.7988690  59.6544810  52.6450410  31.6683540  59.9369610  52.9286330
  30.3079010  60.4680680  52.5299220  40.2656110  66.5524360  63.9950990
  40.9098330  66.7583740  64.6724410  40.6285550  65.7912760  63.5421840
  41.5388190  64.5556710  62.7128440  42.1810420  63.8549870  62.8260610
  42.0637540  65.3355150  62.5325330  45.3843910  64.8405330  52.4367580
  45.1581490  64.1235770  53.0292220  44.9940110  64.5917770  51.5989330
  43.3125810  65.3551610  65.9164500  43.6482050  65.9418300  66.5942420
  42.3926150  65.2244320  66.1462290  31.1659940  68.8672190  53.2112040
  31.5257580  69.4661530  52.5569310  31.0252280  69.4132080  53.9847070
  30.8629210  53.1446790  66.6987910  30.1487730  53.3443710  67.3040520
  31.2824250  52.3686360  67.0702710  44.9660160  62.7577270  54.0981740
  44.6781860  63.2189960  54.8859620  45.7612330  62.2975040  54.3665960
  31.1501800  67.1327050  67.6854440  31.2592920  66.1921790  67.5449830
  30.4982360  67.3981800  67.0368170  39.1414390  65.4042940  69.0852560
  38.8211260  64.6852180  69.6298250  38.4672750  66.0798010  69.1588620
  37.1828560  66.2503390  54.0285710  37.1738660  66.9833080  53.4130220
  36.2626920  66.0034970  54.1212670  32.7835200  61.4718280  54.7732470
  32.1763150  62.2117180  54.7827770  33.2584550  61.5617640  53.9470670
  40.1688160  66.3131630  52.6910900  40.2700140  66.1095620  51.7612880
  39.2689900  66.0589910  52.8958680  39.3169980  58.2908690  64.6727330
  39.8155230  58.7654510  65.3379180  39.4592930  57.3672210  64.8797360
  38.8106270  68.8317950  57.3858570  39.0647770  68.7939340  56.4637940
  37.8618750  68.7051280  57.3786820  46.5236840  54.5076650  65.5155720
  46.0210440  55.2482050  65.8549530  47.3393500  54.8960650  65.1992510
  34.7940490  61.4329430  52.5221040  35.5603760  61.3210790  53.0846470
  34.8715180  60.7367400  51.8697810  33.4887250  58.8654500  53.2053930
  33.5690840  57.9182010  53.3171330  34.3807000  59.1961380  53.3114590
  46.8184430  66.9218680  60.6371340  46.9431850  67.7449850  61.1095150
  47.6849990  66.7109410  60.2895490  34.2901960  69.0149890  60.3088470
  35.0264440  68.4665350  60.5797040  34.6742880  69.8805900  60.1694460
  31.1747440  65.0823460  56.1829980  30.2487220  65.3244600  56.1735390
  31.6403870  65.9097720  56.0614730  33.2960240  68.1995960  69.4974050
  34.0972970  68.5208010  69.9109450  32.7812060  67.8391540  70.2193960
  37.4004270  68.1880200  52.1314040  38.1932880  68.4769030  51.6795830
  36.8808620  67.7572370  51.4526520  42.1324870  64.3075830  69.4449460
  41.5263030  64.3307430  68.7045210  41.8278980  63.5758870  69.9816710
  43.5625240  68.0356120  68.0558870  44.5146990  67.9514140  68.0059110
  43.4153460  68.6997830  68.7292660  46.4534440  67.4150330  53.5550780
  46.1675950  67.0015470  52.7404960  46.2553990  68.3438040  53.4351300
  31.0158050  60.6869420  68.4410100  31.5197070  60.1076700  69.0126330
  30.2765470  60.9709650  68.9786470  37.9181670  63.4083610  51.9956390
  37.8132310  62.7935960  52.7217770  37.7505890  62.8849500  51.2119400
  38.0695990  62.0940410  67.9745620  37.3041660  62.6625410  67.8900290
  38.2511950  61.8016620  67.0813850  41.1584400  62.4703640  52.5998380
  40.6094500  62.9172940  53.2441120  41.7803660  61.9652890  53.1236050
  45.2119340  63.8245740  68.5320640  45.9528810  64.1621500  68.0288100
  44.4492020  63.9937800  67.9790410  33.0481130  58.8299010  69.3360170
  33.0886470  58.5312880  70.2445400  33.9026630  59.2306620  69.1767690
  36.8259520  61.4294560  54.4963680  37.2475940  61.2634430  55.3395070
  36.9510360  60.6194790  54.0018820  34.9886940  57.4091110  67.3034660
  34.4583400  56.9182060  66.6758000  35.6575010  57.8375310  66.7692590
  39.3387160  60.4532170  51.7440780  39.8592820  59.7381190  51.3781930
  39.9855560  61.0918040  52.0441290  43.8865000  61.8760570  67.0675850
  44.3006020  62.0305650  67.9166270  42.9516000  62.0015790  67.2301630
  44.3587170  59.2156730  69.0715000  44.9407940  58.4609050  68.9835480
  44.5348940  59.7464170  68.2946480  35.4759240  54.3753480  67.3831950
  35.3816110  53.7574230  66.6582820  34.8956630  55.1019770  67.1561860
  38.6480230  61.8281050  65.0371780  39.0668340  62.6713780  64.8648020
  37.7288860  61.9653090  64.8078560  40.9844130  59.5597230  66.4209620
  41.1040340  58.9638370  67.1604460  41.8438130  59.5966920  66.0010920
  43.3232030  60.1134420  64.9972130  42.7967250  60.6377040  64.3937270
  43.6663370  60.7461810  65.6281860  36.4987650  68.1334060  66.1529510
  35.9608740  68.8580120  65.8338210  36.7521610  67.6564400  65.3626850
  37.7512900  56.1018580  67.6785440  38.3412590  55.7934430  68.3663260
  36.9333140  55.6298330  67.8345340  42.5706330  55.7184390  67.9118460
  41.8821850  55.0565930  67.8468450  43.2912350  55.2722660  68.3566920
  39.3549860  69.3685270  66.4116160  39.2808560  70.2720410  66.7188530
  38.4528700  69.0497170  66.3838230  39.9035190  68.5343780  54.0342520
  40.7985980  68.8728750  54.0561280  39.9352820  67.8123190  53.4066800
  33.5431350  63.9070830  52.2629520  33.9806220  64.4500500  52.9187100
  34.0279080  63.0817780  52.2725860  30.7577150  66.6959860  59.7149780
  31.0880160  65.8280920  59.4828420  31.1868150  66.9018380  60.5454740
  35.3539070  65.0268870  57.3751750  35.0534610  64.9033840  58.2755660
  35.2476560  64.1677460  56.9667480  31.2467360  67.5630450  62.4531410
  30.8098350  67.7431250  63.2855560  31.8145040  68.3205070  62.3113130
  46.8829540  67.0647450  66.7408720  46.2831530  67.1240010  65.9972640
  47.0123440  66.1252430  66.8705570  48.1230990  64.8065270  52.0778430
  47.2923950  64.8741920  52.5485660  48.3002820  65.6969390  51.7745290
  31.0791790  60.0750680  58.8120290  30.4240630  59.8062320  58.1679990
  31.9169740  59.9655160  58.3622270  45.5681180  63.7899430  64.8384880
  44.7541020  64.2196590  65.1010670  45.9755380  64.4017840  64.2253930
  32.1167720  60.4603250  63.3523630  32.4840760  60.3730650  64.2319650
  31.5478540  59.6969800  63.2530490  46.9171580  58.9287630  66.3654100
  46.6857670  58.7000380  65.4652050  47.1776130  59.8487180  66.3198990
  31.6683720  57.3712340  67.2582050  30.7739770  57.3379100  67.5975760
  32.2081270  57.5699130  68.0233300  45.3559650  54.1544060  69.1433800
  46.2329830  54.1627460  69.5267800  45.3680490  53.4174900  68.5326150
  30.2929870  57.2849610  54.7545620  29.3893950  57.5479810  54.5797280
  30.7770490  57.5560780  53.9745580  32.8357080  56.3415150  52.6640000
  33.5448780  55.9198370  52.1787280  32.1197020  56.4090380  52.0323350
  45.6257230  68.5418030  58.3653150  46.2216300  68.2202600  57.6887570
  45.8835380  68.0689850  59.1566420  33.5319800  64.9735940  68.5143780
  33.4889430  64.6028850  69.3958240  33.6630810  65.9113510  68.6545600
  37.2325830  66.5295530  64.1153500  36.9917190  66.7970090  63.2284020
  38.1728470  66.7001260  64.1704360  39.4380250  52.9928220  67.8710010
  39.3769140  53.5850050  68.6205420  40.3780630  52.8854180  67.7260270
  42.0754810  52.6498280  67.5102300  42.6895220  52.9677570  66.8483380
  42.6204370  52.1646870  68.1298160  48.4929990  68.5489910  64.9164140
  47.9988270  68.9458780  64.1991270  47.8843280  67.9239120  65.3101420
  32.5976070  51.3292540  67.6241360  33.1459060  51.1480590  66.8607470
  32.6631380  50.5386650  68.1597670  33.3707830  67.9198190  65.6341560
  32.7768150  67.7882890  66.3731600  33.3631670  67.0836330  65.1683660
  46.1769440  69.1913330  62.1950880  45.7172410  69.9429140  61.8208900
  45.5481900  68.4719800  62.1365680  33.0020060  65.2856570  64.5849600
  32.2754120  64.6661860  64.5175550  33.0629210  65.6797180  63.7147680
  36.6065160  67.5001570  61.3699010  37.1230180  66.8888930  60.8447270
  37.2562540  68.0030350  61.8610020  39.3460660  68.3910060  62.1967990
  39.6338470  68.1364360  61.3201000  39.8583880  67.8387420  62.7873560
  31.2850060  68.6030960  57.7946360  31.1172100  67.9701640  58.4928250
  30.4184570  68.8090360  57.4440550  32.8912760  67.2964190  55.2396500
  32.3660380  67.6772220  54.5358460  32.8157340  67.9214960  55.9606210
  39.4133020  69.3126160  69.5636190  40.3400330  69.0770430  69.6072150
  39.3983450  70.1398160  69.0822220  47.6478080  68.8551730  56.5610440
  47.8230270  68.1689470  55.9171360  46.9499650  69.3798780  56.1687110
  36.5996630  51.9770910  69.3278070  36.3180900  52.4804510  68.5638890
  36.9816330  51.1792660  68.9620200  35.4905730  69.2446570  54.1145750
  36.2224550  68.9605850  53.5669640  35.7499400  69.0059850  55.0045130
  34.6520520  65.3611300  54.1192080  34.0229400  65.8296400  54.6677910
  34.7668350  64.5160520  54.5538270  43.2012090  51.3924490  69.9058540
  43.0877540  51.7119100  70.8010060  44.0181830  51.7937000  69.6095820
  45.9810580  68.5396020  69.3877230  46.7735900  68.0445250  69.1803190
  46.2743730  69.2186160  69.9952840  40.2388280  61.1895980  42.1502550
  39.4630380  60.7096420  42.4401120  40.8901210  60.5101630  41.9758710
  34.2554110  61.5015790  43.0278310  33.4238990  61.2464500  43.4274820
  34.8635090  61.5726560  43.7636230  44.2595710  65.5956170  40.9301680
  43.7977240  64.8243410  41.2588850  45.0721260  65.6222240  41.4354130
  34.2355370  65.5355880  43.2236330  34.5383410  64.6453620  43.0446550
  34.9798960  66.0926100  42.9958580  32.6646060  56.4617680  36.8120700
  31.7762760  56.8033650  36.7100580  32.9487250  56.2618000  35.9201530
  30.6279070  59.0623330  42.6960400  31.1995180  58.2945530  42.6964040
  30.6280610  59.3612090  41.7867010  40.4859020  67.8814180  40.5505670
  39.8670460  68.3371680  39.9800110  41.3410800  68.0365640  40.1495370
  39.6797270  63.8653170  42.1572710  39.6105550  62.9243110  41.9961840
  40.4417130  63.9554580  42.7295280  36.6815180  58.0135550  42.1784260
  37.1893400  58.5116520  42.8189280  37.2128420  57.2370750  42.0023620
  36.2154130  62.2929290  44.6221180  35.8823510  62.9198210  45.2642250
  36.3920810  62.8191170  43.8422850  35.4273230  64.2610090  46.4370360
  36.0447230  64.9361170  46.1554810  34.5666350  64.6698070  46.3457860
  30.7205570  63.4509950  35.3177210  30.3433550  63.9397050  34.5862110
  30.9778640  64.1235230  35.9483740  46.3450820  65.7249500  44.3525000
  45.6614340  66.3948610  44.3441670  46.8845110  65.9230150  43.5869860
  43.8809560  67.5693630  43.0670180  43.8936720  67.1655920  42.1992440
  43.3284780  68.3440920  42.9631610  45.1754980  64.2909850  38.1560350
  45.0651310  63.3484180  38.2809770  45.1723230  64.6525490  39.0423110
  43.2795000  62.4723470  44.3952790  43.6963790  62.2583580  43.5606250
  44.0034820  62.7296260  44.9661410  47.2257100  60.8710690  44.4869030
  46.3975730  60.9403780  44.0119160  47.8207580  61.4565000  44.0184860
  36.3231900  60.4439910  40.2942570  35.9188900  59.7317160  39.7988470
  36.4095020  60.0993150  41.1830610  36.7913600  64.1307470  42.4581780
  36.4941890  63.5252940  41.7789560  37.7413420  64.1684780  42.3471140
  44.8799210  67.7039340  46.1204880  44.4029770  68.5111530  45.9277490
  44.1961000  67.0517670  46.2731090  35.8832030  63.8689160  49.1089580
  34.9860560  64.0929130  49.3562980  35.9084900  63.9924100  48.1600980
  34.7103250  60.7402480  47.6846950  34.5711020  61.6125280  48.0534350
  33.8284610  60.3975290  47.5394890  41.0332630  65.6578350  38.9912080
  41.4728540  66.4002680  38.5767470  40.9719520  65.9004920  39.9151040
  36.5083600  66.6824180  49.8932100  36.4799030  67.0867130  49.0260530
  36.3448570  65.7534540  49.7303700  33.0236530  59.3384890  37.7949220
  32.9034130  60.0646980  37.1830490  32.7137420  58.5687800  37.3177130
  48.4598420  67.4651280  51.1896270  48.9358140  67.9434170  51.8685350
  49.0805580  67.3968770  50.4641770  30.6621900  62.5100030  43.6017860
  30.7402320  62.6448800  42.6573580  31.2763580  61.8015920  43.7945980
  31.9069530  64.2100220  40.0124040  31.4997610  64.3514810  39.1577640
  32.7982540  63.9260380  39.8095250  47.8631670  64.6564130  48.3496280
  47.9894730  64.4176010  47.4313460  47.9053050  63.8248670  48.8218360
  41.7248410  68.3592130  46.9191090  42.2393080  68.2700140  47.7213520
  40.8817490  68.7051830  47.2119000  43.7002810  68.6447470  36.3475090
  43.5403950  68.3550410  37.2456920  43.5349520  67.8687600  35.8120320
  36.1791190  68.4246000  38.1246710  36.0033670  67.5081540  37.9114510
  35.3246930  68.7833290  38.3644510  43.4028940  66.1535030  34.9073090
  42.7094100  66.1512320  34.2475370  44.1451800  65.7294350  34.4767260
  42.9678870  67.7797740  38.9821580  43.4235820  66.9987120  39.2960200
  43.3071390  68.4904560  39.5262760  30.7181420  63.5514200  46.1412320
  30.8812460  63.0819560  45.3231690  31.1833870  63.0437760  46.8061160
  35.2814410  57.8053530  38.9054140  35.0555330  57.5890700  39.8100760
  34.5006940  58.2381990  38.5600110  37.7213620  58.7039110  49.5714410
  37.6257220  57.7633840  49.4214810  38.5645600  58.9254180  49.1762480
  30.3411440  56.9801360  32.9680990  30.2586110  57.9232120  33.1095980
  29.9894500  56.8376270  32.0893340  41.7032180  59.0386190  43.6298850
  40.9713300  59.5473000  43.9788950  41.3056520  58.2216170  43.3287630
  38.2029720  56.7152470  35.0258100  38.3242540  56.6738950  35.9743920
  37.8178230  57.5776620  34.8704830  32.2920400  62.9265630  48.3008130
  31.9075190  62.2859300  48.8991090  32.6032590  63.6301750  48.8702860
  38.4417540  59.7742170  43.7816750  38.8087670  59.3000740  44.5278090
  38.2522600  60.6483740  44.1225090  36.2316910  58.8150810  46.1000960
  35.9273980  59.6942790  46.3251320  37.1863370  58.8750600  46.1358400
  34.7598700  63.0211800  36.6967810  33.9860960  62.4809420  36.5366530
  35.4893330  62.5018410  36.3585570  45.5186680  62.0177160  42.4894200
  46.2385800  62.5132450  42.0990310  45.3168500  61.3395050  41.8448070
  40.9005480  62.0886220  48.3763200  40.8342790  61.1681890  48.1220790
  40.2710620  62.1861660  49.0907840  34.8036100  62.6892180  40.3346620
  35.3214770  61.8860440  40.2803510  34.3520120  62.6271320  41.1763450
  32.2880640  59.6553550  47.2472320  31.9295580  60.3207400  47.8345660
  31.9935200  58.8237100  47.6184940  35.4893760  60.1137790  50.1311870
  35.1893900  60.2594970  49.2339690  36.2605000  59.5543080  50.0385260
  40.8322210  64.9106790  48.1267000  40.8466750  63.9787750  47.9085910
  40.1247310  64.9966550  48.7656770  45.9659280  59.0946610  34.3965610
  45.8823000  59.5260830  33.5462050  46.6853470  59.5544960  34.8292430
  46.9946530  65.9488870  37.1247740  46.3522690  65.2944490  37.3991460
  46.6077190  66.3543960  36.3488410  42.5733010  63.2774300  40.9719430
  42.9256830  62.6802430  40.3120800  41.6895340  62.9518530  41.1427680
  38.6596290  64.0371990  38.3789840  39.3467420  64.5841200  38.7597430
  37.8728710  64.5812720  38.4139450  30.7988690  59.6544810  33.8706920
  31.6683540  59.9369610  34.1542840  30.3079010  60.4680680  33.7555730
  40.2656110  66.5524360  45.2207500  40.9098330  66.7583740  45.8980920
  40.6285550  65.7912760  44.7678350  41.5388190  64.5556710  43.9384950
  42.1810420  63.8549870  44.0517120  42.0637540  65.3355150  43.7581840
  45.3843910  64.8405330  33.6624090  45.1581490  64.1235770  34.2548730
  44.9940110  64.5917770  32.8245840  43.3125810  65.3551610  47.1421010
  43.6482050  65.9418300  47.8198930  42.3926150  65.2244320  47.3718800
  31.1659940  68.8672190  34.4368550  31.5257580  69.4661530  33.7825820
  31.0252280  69.4132080  35.2103580  44.9660160  62.7577270  35.3238250
  44.6781860  63.2189960  36.1116130  45.7612330  62.2975040  35.5922470
  31.1501800  67.1327050  48.9110950  31.2592920  66.1921790  48.7706340
  30.4982360  67.3981800  48.2624680  39.1414390  65.4042940  50.3109070
  38.8211260  64.6852180  50.8554760  38.4672750  66.0798010  50.3845130
  37.1828560  66.2503390  35.2542220  37.1738660  66.9833080  34.6386730
  36.2626920  66.0034970  35.3469180  32.7835200  61.4718280  35.9988980
  32.1763150  62.2117180  36.0084280  33.2584550  61.5617640  35.1727180
  40.1688160  66.3131630  33.9167410  40.2700140  66.1095620  32.9869390
  39.2689900  66.0589910  34.1215190  39.3169980  58.2908690  45.8983840
  39.8155230  58.7654510  46.5635690  39.4592930  57.3672210  46.1053870
  38.8106270  68.8317950  38.6115080  39.0647770  68.7939340  37.6894450
  37.8618750  68.7051280  38.6043330  35.8949070  55.1797070  35.2742020
  36.7439600  55.6167220  35.2082210  35.5280340  55.4917330  36.1014080
  34.7940490  61.4329430  33.7477550  35.5603760  61.3210790  34.3102980
  34.8715180  60.7367400  33.0954320  33.4887250  58.8654500  34.4310440
  33.5690840  57.9182010  34.5427840  34.3807000  59.1961380  34.5371100
  46.8184430  66.9218680  41.8627850  46.9431850  67.7449850  42.3351660
  47.6849990  66.7109410  41.5152000  34.2901960  69.0149890  41.5344980
  35.0264440  68.4665350  41.8053550  34.6742880  69.8805900  41.3950970
  31.1747440  65.0823460  37.4086490  30.2487220  65.3244600  37.3991900
  31.6403870  65.9097720  37.2871240  33.2960240  68.1995960  50.7230560
  34.0972970  68.5208010  51.1365960  32.7812060  67.8391540  51.4450470
  37.4004270  68.1880200  33.3570550  38.1932880  68.4769030  32.9052340
  36.8808620  67.7572370  32.6783030  42.1324870  64.3075830  50.6705970
  41.5263030  64.3307430  49.9301720  41.8278980  63.5758870  51.2073220
  43.5625240  68.0356120  49.2815380  44.5146990  67.9514140  49.2315620
  43.4153460  68.6997830  49.9549170  46.4534440  67.4150330  34.7807290
  46.1675950  67.0015470  33.9661470  46.2553990  68.3438040  34.6607810
  31.0158050  60.6869420  49.6666610  31.5197070  60.1076700  50.2382840
  30.2765470  60.9709650  50.2042980  37.9181670  63.4083610  33.2212900
  37.8132310  62.7935960  33.9474280  37.7505890  62.8849500  32.4375910
  38.0695990  62.0940410  49.2002130  37.3041660  62.6625410  49.1156800
  38.2511950  61.8016620  48.3070360  45.2119340  63.8245740  49.7577150
  45.9528810  64.1621500  49.2544610  44.4492020  63.9937800  49.2046920
  33.0481130  58.8299010  50.5616680  33.0886470  58.5312880  51.4701910
  33.9026630  59.2306620  50.4024200  34.9886940  57.4091110  48.5291170
  34.4583400  56.9182060  47.9014510  35.6575010  57.8375310  47.9949100
  43.8865000  61.8760570  48.2932360  44.3006020  62.0305650  49.1422780
  42.9516000  62.0015790  48.4558140  38.6480230  61.8281050  46.2628290
  39.0668340  62.6713780  46.0904530  37.7288860  61.9653090  46.0335070
  40.9844130  59.5597230  47.6466130  41.1040340  58.9638370  48.3860970
  41.8438130  59.5966920  47.2267430  43.3232030  60.1134420  46.2228640
  42.7967250  60.6377040  45.6193780  43.6663370  60.7461810  46.8538370
  35.7218420  57.5027790  32.6678350  35.5207480  56.6395150  33.0291690
  35.5510470  57.4161150  31.7299950  36.4987650  68.1334060  47.3786020
  35.9608740  68.8580120  47.0594720  36.7521610  67.6564400  46.5883360
  34.5201220  54.6028410  32.6556230  34.8227120  54.6095840  31.7475380
  35.2595810  54.2526270  33.1523890  39.3549860  69.3685270  47.6372670
  39.2808560  70.2720410  47.9445040  38.4528700  69.0497170  47.6094740
  37.7386150  53.5463030  33.6412430  37.3908150  52.8687020  33.0614880
  37.9398920  53.0852540  34.4555820  39.9035190  68.5343780  35.2599030
  40.7985980  68.8728750  35.2817790  39.9352820  67.8123190  34.6323310
  33.5431350  63.9070830  33.4886030  33.9806220  64.4500500  34.1443610
  34.0279080  63.0817780  33.4982370  30.7577150  66.6959860  40.9406290
  31.0880160  65.8280920  40.7084930  31.1868150  66.9018380  41.7711250
  35.3539070  65.0268870  38.6008260  35.0534610  64.9033840  39.5012170
  35.2476560  64.1677460  38.1923990  31.2467360  67.5630450  43.6787920
  30.8098350  67.7431250  44.5112070  31.8145040  68.3205070  43.5369640
  46.8829540  67.0647450  47.9665230  46.2831530  67.1240010  47.2229150
  47.0123440  66.1252430  48.0962080  48.1230990  64.8065270  33.3034940
  47.2923950  64.8741920  33.7742170  48.3002820  65.6969390  33.0001800
  47.5787450  61.5512750  35.8069140  48.3406360  62.1209400  35.9128830
  47.5941820  60.9839950  36.5777450  31.0791790  60.0750680  40.0376800
  30.4240630  59.8062320  39.3936500  31.9169740  59.9655160  39.5878780
  48.5847420  62.4062850  40.6511070  48.9556250  61.6230170  40.2447040
  49.2249350  63.0951950  40.4728370  45.5681180  63.7899430  46.0641390
  44.7541020  64.2196590  46.3267180  45.9755380  64.4017840  45.4510440
  47.6306620  61.8447120  32.9641660  47.9055460  62.7526000  32.8360880
  47.4417360  61.7809650  33.9003650  47.5271960  59.7816110  37.9571090
  47.1515560  59.0144040  37.5252380  46.7975080  60.1638810  38.4446020
  32.1167720  60.4603250  44.5780140  32.4840760  60.3730650  45.4576160
  31.5478540  59.6969800  44.4787000  31.6683720  57.3712340  48.4838560
  30.7739770  57.3379100  48.8232270  32.2081270  57.5699130  49.2489810
  30.2929870  57.2849610  35.9802130  29.3893950  57.5479810  35.8053790
  30.7770490  57.5560780  35.2002090  32.8357080  56.3415150  33.8896510
  33.5448780  55.9198370  33.4043790  32.1197020  56.4090380  33.2579860
  45.6257230  68.5418030  39.5909660  46.2216300  68.2202600  38.9144080
  45.8835380  68.0689850  40.3822930  33.5319800  64.9735940  49.7400290
  33.4889430  64.6028850  50.6214750  33.6630810  65.9113510  49.8802110
  37.2325830  66.5295530  45.3410010  36.9917190  66.7970090  44.4540530
  38.1728470  66.7001260  45.3960870  48.4929990  68.5489910  46.1420650
  47.9988270  68.9458780  45.4247780  47.8843280  67.9239120  46.5357930
  33.3707830  67.9198190  46.8598070  32.7768150  67.7882890  47.5988110
  33.3631670  67.0836330  46.3940170  46.1769440  69.1913330  43.4207390
  45.7172410  69.9429140  43.0465410  45.5481900  68.4719800  43.3622190
  33.0020060  65.2856570  45.8106110  32.2754120  64.6661860  45.7432060
  33.0629210  65.6797180  44.9404190  36.6065160  67.5001570  42.5955520
  37.1230180  66.8888930  42.0703780  37.2562540  68.0030350  43.0866530
  39.3460660  68.3910060  43.4224500  39.6338470  68.1364360  42.5457510
  39.8583880  67.8387420  44.0130070  31.2850060  68.6030960  39.0202870
  31.1172100  67.9701640  39.7184760  30.4184570  68.8090360  38.6697060
  32.8912760  67.2964190  36.4653010  32.3660380  67.6772220  35.7614970
  32.8157340  67.9214960  37.1862720  34.2803230  52.9611790  35.0636700
  34.8095990  52.1741590  34.9344650  34.9131550  53.6402980  35.2972230
  39.4133020  69.3126160  50.7892700  40.3400330  69.0770430  50.8328660
  39.3983450  70.1398160  50.3078730  47.6478080  68.8551730  37.7866950
  47.8230270  68.1689470  37.1427870  46.9499650  69.3798780  37.3943620
  35.4905730  69.2446570  35.3402260  36.2224550  68.9605850  34.7926150
  35.7499400  69.0059850  36.2301640  34.6520520  65.3611300  35.3448590
  34.0229400  65.8296400  35.8934420  34.7668350  64.5160520  35.7794780
  45.9810580  68.5396020  50.6133740  46.7735900  68.0445250  50.4059700
  46.2743730  69.2186160  51.2209350  42.1070240  59.4116960  21.4949790
  42.0264290  58.4971570  21.2241500  41.6934660  59.9084030  20.7889500
  40.2388280  61.1895980  23.3759060  39.4630380  60.7096420  23.6657630
  40.8901210  60.5101630  23.2015220  34.2554110  61.5015790  24.2534820
  33.4238990  61.2464500  24.6531330  34.8635090  61.5726560  24.9892740
  44.2595710  65.5956170  22.1558190  43.7977240  64.8243410  22.4845360
  45.0721260  65.6222240  22.6610640  34.2355370  65.5355880  24.4492840
  34.5383410  64.6453620  24.2703060  34.9798960  66.0926100  24.2215090
  40.4859020  67.8814180  21.7762180  39.8670460  68.3371680  21.2056620
  41.3410800  68.0365640  21.3751880  39.6797270  63.8653170  23.3829220
  39.6105550  62.9243110  23.2218350  40.4417130  63.9554580  23.9551790
  40.7102440  56.6723550  23.6098150  41.0867260  55.7995430  23.4971820
  40.6121950  57.0082250  22.7188590  44.4926560  54.1673990  20.5426490
  45.3136180  53.6770560  20.5851970  44.5260640  54.7571650  21.2958330
  36.6815180  58.0135550  23.4040770  37.1893400  58.5116520  24.0445790
  37.2128420  57.2370750  23.2280130  48.7826110  56.1840740  27.1070120
  48.0778280  56.5722450  26.5885230  49.0484030  56.8791030  27.7091050
  41.3522370  62.7653420  19.1694090  40.7339640  63.2302870  18.6056810
  41.8645620  63.4580900  19.5863600  36.2154130  62.2929290  25.8477690
  35.8823510  62.9198210  26.4898760  36.3920810  62.8191170  25.0679360
  44.7288040  56.1074370  23.3154030  44.0243610  56.3959260  23.8957140
  45.0900200  56.9174480  22.9553590  35.4273230  64.2610090  27.6626870
  36.0447230  64.9361170  27.3811320  34.5666350  64.6698070  27.5714370
  30.7205570  63.4509950  16.5433720  30.3433550  63.9397050  15.8118620
  30.9778640  64.1235230  17.1740250  46.3450820  65.7249500  25.5781510
  45.6614340  66.3948610  25.5698180  46.8845110  65.9230150  24.8126370
  47.7974960  55.5529160  23.7063240  46.8499870  55.5868140  23.8378670
  48.1224950  56.3668110  24.0912600  38.3294500  51.8526340  22.0019230
  38.6369480  51.2973230  21.2854730  37.3995200  51.9870800  21.8192220
  43.8809560  67.5693630  24.2926690  43.8936720  67.1655920  23.4248950
  43.3284780  68.3440920  24.1888120  45.1754980  64.2909850  19.3816860
  45.0651310  63.3484180  19.5066280  45.1723230  64.6525490  20.2679620
  43.2795000  62.4723470  25.6209300  43.6963790  62.2583580  24.7862760
  44.0034820  62.7296260  26.1917920  40.7175260  59.9175170  18.7379350
  39.7904540  59.8512550  18.9667820  40.8700080  60.8555300  18.6234590
  40.7044340  56.1892170  15.7346510  39.7648010  56.3506130  15.8198970
  41.0227600  56.9077850  15.1882500  47.2257100  60.8710690  25.7125540
  46.3975730  60.9403780  25.2375670  47.8207580  61.4565000  25.2441370
  44.7472550  61.4795470  19.2414600  44.1284970  61.1415020  18.5940900
  44.7297000  60.8355230  19.9493790  44.1899110  57.6580010  26.6580410
  43.7770290  58.4833720  26.9120400  43.4575060  57.0725050  26.4656770
  36.3231900  60.4439910  21.5199080  35.9188900  59.7317160  21.0244980
  36.4095020  60.0993150  22.4087120  36.7913600  64.1307470  23.6838290
  36.4941890  63.5252940  23.0046070  37.7413420  64.1684780  23.5727650
  44.8799210  67.7039340  27.3461390  44.4029770  68.5111530  27.1534000
  44.1961000  67.0517670  27.4987600  35.8832030  63.8689160  30.3346090
  34.9860560  64.0929130  30.5819490  35.9084900  63.9924100  29.3857490
  42.9237250  60.7182280  16.2487350  43.3630530  59.8804710  16.1025170
  43.6365670  61.3511680  16.3351490  34.7103250  60.7402480  28.9103460
  34.5711020  61.6125280  29.2790860  33.8284610  60.3975290  28.7651400
  41.0332630  65.6578350  20.2168590  41.4728540  66.4002680  19.8023980
  40.9719520  65.9004920  21.1407550  36.5083600  66.6824180  31.1188610
  36.4799030  67.0867130  30.2517040  36.3448570  65.7534540  30.9560210
  46.5054390  51.9725090  14.5628390  46.1927050  52.0651920  15.4627460
  47.2666860  52.5506120  14.5125820  33.0236530  59.3384890  19.0205730
  32.9034130  60.0646980  18.4087000  32.7137420  58.5687800  18.5433640
  48.4598420  67.4651280  32.4152780  48.9358140  67.9434170  33.0941860
  49.0805580  67.3968770  31.6898280  31.9069530  64.2100220  21.2380550
  31.4997610  64.3514810  20.3834150  32.7982540  63.9260380  21.0351760
  47.8631670  64.6564130  29.5752790  47.9894730  64.4176010  28.6569970
  47.9053050  63.8248670  30.0474870  41.7248410  68.3592130  28.1447600
  42.2393080  68.2700140  28.9470030  40.8817490  68.7051830  28.4375510
  43.7002810  68.6447470  17.5731600  43.5403950  68.3550410  18.4713430
  43.5349520  67.8687600  17.0376830  36.1791190  68.4246000  19.3503220
  36.0033670  67.5081540  19.1371020  35.3246930  68.7833290  19.5901020
  43.4028940  66.1535030  16.1329600  42.7094100  66.1512320  15.4731880
  44.1451800  65.7294350  15.7023770  42.9678870  67.7797740  20.2078090
  43.4235820  66.9987120  20.5216710  43.3071390  68.4904560  20.7519270
  39.7770000  55.5488480  28.0064720  39.3149370  55.7571500  28.8184660
  39.3748110  54.7347830  27.7035390  41.8724220  58.2699180  31.2360170
  42.1977630  57.4362930  30.8962400  42.6604550  58.7927700  31.3838500
  38.6059010  52.3030660  17.2835230  37.9813190  52.2990530  18.0088540
  38.5189130  51.4361620  16.8871200  35.2814410  57.8053530  20.1310650
  35.0555330  57.5890700  21.0357270  34.5006940  58.2381990  19.7856620
  42.5112170  57.8116900  18.7301300  41.9121060  58.5352700  18.5464920
  43.0591780  57.7493680  17.9477750  37.7213620  58.7039110  30.7970920
  37.6257220  57.7633840  30.6471320  38.5645600  58.9254180  30.4018990
  41.1177040  56.4480440  20.7604580  41.5106610  56.7652640  19.9473270
  41.4793890  55.5692320  20.8749100  32.8524160  55.1152780  28.9504700
  32.4587550  55.9627990  29.1577480  32.1642560  54.4779150  29.1413340
  30.3411440  56.9801360  14.1937500  30.2586110  57.9232120  14.3352490
  29.9894500  56.8376270  13.3149850  41.7032180  59.0386190  24.8555360
  40.9713300  59.5473000  25.2045460  41.3056520  58.2216170  24.5544140
  38.1409570  55.7140390  23.2607850  38.1445630  55.2730340  22.4112390
  39.0360690  56.0357720  23.3679670  38.2029720  56.7152470  16.2514610
  38.3242540  56.6738950  17.2000430  37.8178230  57.5776620  16.0961340
  42.1658090  54.4919870  24.2678300  42.1830830  54.9428520  25.1120150
  41.9173670  53.5925510  24.4811740  37.2151220  59.0253610  15.6497910
  36.6468120  58.5771860  15.0233820  37.9240220  59.3846390  15.1163060
  32.2920400  62.9265630  29.5264640  31.9075190  62.2859300  30.1247600
  32.6032590  63.6301750  30.0959370  38.4417540  59.7742170  25.0073260
  38.8087670  59.3000740  25.7534600  38.2522600  60.6483740  25.3481600
  36.2316910  58.8150810  27.3257470  35.9273980  59.6942790  27.5507830
  37.1863370  58.8750600  27.3614910  34.7598700  63.0211800  17.9224320
  33.9860960  62.4809420  17.7623040  35.4893330  62.5018410  17.5842080
  45.5186680  62.0177160  23.7150710  46.2385800  62.5132450  23.3246820
  45.3168500  61.3395050  23.0704580  40.9796620  53.4115120  17.8580100
  40.1661230  52.9128290  17.7825410  40.7858570  54.2513370  17.4416450
  40.9005480  62.0886220  29.6019710  40.8342790  61.1681890  29.3477300
  40.2710620  62.1861660  30.3164350  43.6945010  57.7834770  16.1542260
  44.5824630  58.0952000  15.9793600  43.6650100  56.9107020  15.7622840
  34.8036100  62.6892180  21.5603130  35.3214770  61.8860440  21.5060020
  34.3520120  62.6271320  22.4019960  39.6905600  63.9558460  16.8330430
  40.0321300  64.7000690  16.3373750  38.8618310  64.2689580  17.1955260
  35.4893760  60.1137790  31.3568380  35.1893900  60.2594970  30.4596200
  36.2605000  59.5543080  31.2641770  40.8322210  64.9106790  29.3523510
  40.8466750  63.9787750  29.1342420  40.1247310  64.9966550  29.9913280
  45.9659280  59.0946610  15.6222120  45.8823000  59.5260830  14.7718560
  46.6853470  59.5544960  16.0548940  47.0433420  61.5514130  28.6992090
  46.3181610  62.1442910  28.5021480  47.5708880  61.5437670  27.9005460
  46.9946530  65.9488870  18.3504250  46.3522690  65.2944490  18.6247970
  46.6077190  66.3543960  17.5744920  42.5733010  63.2774300  22.1975940
  42.9256830  62.6802430  21.5377310  41.6895340  62.9518530  22.3684190
  38.6596290  64.0371990  19.6046350  39.3467420  64.5841200  19.9853940
  37.8728710  64.5812720  19.6395960  30.7988690  59.6544810  15.0963430
  31.6683540  59.9369610  15.3799350  30.3079010  60.4680680  14.9812240
  37.9623500  61.0418020  19.2171710  38.4186280  61.8523270  19.4431900
  37.6111710  60.7241160  20.0490200  40.2656110  66.5524360  26.4464010
  40.9098330  66.7583740  27.1237430  40.6285550  65.7912760  25.9934860
  41.5388190  64.5556710  25.1641460  42.1810420  63.8549870  25.2773630
  42.0637540  65.3355150  24.9838350  45.3843910  64.8405330  14.8880600
  45.1581490  64.1235770  15.4805240  44.9940110  64.5917770  14.0502350
  43.3125810  65.3551610  28.3677520  43.6482050  65.9418300  29.0455440
  42.3926150  65.2244320  28.5975310  31.1659940  68.8672190  15.6625060
  31.5257580  69.4661530  15.0082330  31.0252280  69.4132080  16.4360090
  44.9660160  62.7577270  16.5494760  44.6781860  63.2189960  17.3372640
  45.7612330  62.2975040  16.8178980  31.1501800  67.1327050  30.1367460
  31.2592920  66.1921790  29.9962850  30.4982360  67.3981800  29.4881190
  39.1414390  65.4042940  31.5365580  38.8211260  64.6852180  32.0811270
  38.4672750  66.0798010  31.6101640  37.1828560  66.2503390  16.4798730
  37.1738660  66.9833080  15.8643240  36.2626920  66.0034970  16.5725690
  32.7835200  61.4718280  17.2245490  32.1763150  62.2117180  17.2340790
  33.2584550  61.5617640  16.3983690  42.3567990  55.6369100  26.9002380
  42.7248810  54.8164310  27.2281950  41.4966190  55.6970990  27.3158030
  45.7230020  54.5926040  17.7089940  45.0943180  54.6971710  16.9948170
  45.2281940  54.8122820  18.4983820  40.1688160  66.3131630  15.1423920
  40.2700140  66.1095620  14.2125900  39.2689900  66.0589910  15.3471700
  37.6914050  56.8711990  19.1247820  36.9830200  57.3398330  19.5661430
  37.9758530  56.2134000  19.7593010  39.3169980  58.2908690  27.1240350
  39.8155230  58.7654510  27.7892200  39.4592930  57.3672210  27.3310380
  41.7229480  53.5962650  20.5643610  41.5997260  53.6148780  19.6153120
  42.6714040  53.6441590  20.6842010  38.8106270  68.8317950  19.8371590
  39.0647770  68.7939340  18.9150960  37.8618750  68.7051280  19.8299840
  35.8949070  55.1797070  16.4998530  36.7439600  55.6167220  16.4338720
  35.5280340  55.4917330  17.3270590  44.8158850  59.7509830  21.4130100
  43.8748990  59.7660060  21.5877790  45.1302920  58.9645790  21.8590400
  34.7940490  61.4329430  14.9734060  35.5603760  61.3210790  15.5359490
  34.8715180  60.7367400  14.3210830  33.4887250  58.8654500  15.6566950
  33.5690840  57.9182010  15.7684350  34.3807000  59.1961380  15.7627610
  46.8184430  66.9218680  23.0884360  46.9431850  67.7449850  23.5608170
  47.6849990  66.7109410  22.7408510  34.2901960  69.0149890  22.7601490
  35.0264440  68.4665350  23.0310060  34.6742880  69.8805900  22.6207480
  31.1747440  65.0823460  18.6343000  30.2487220  65.3244600  18.6248410
  31.6403870  65.9097720  18.5127750  33.2960240  68.1995960  31.9487070
  34.0972970  68.5208010  32.3622470  32.7812060  67.8391540  32.6706980
  37.4004270  68.1880200  14.5827060  38.1932880  68.4769030  14.1308850
  36.8808620  67.7572370  13.9039540  42.1324870  64.3075830  31.8962480
  41.5263030  64.3307430  31.1558230  41.8278980  63.5758870  32.4329730
  43.5625240  68.0356120  30.5071890  44.5146990  67.9514140  30.4572130
  43.4153460  68.6997830  31.1805680  46.4534440  67.4150330  16.0063800
  46.1675950  67.0015470  15.1917980  46.2553990  68.3438040  15.8864320
  31.0158050  60.6869420  30.8923120  31.5197070  60.1076700  31.4639350
  30.2765470  60.9709650  31.4299490  37.9181670  63.4083610  14.4469410
  37.8132310  62.7935960  15.1730790  37.7505890  62.8849500  13.6632420
  38.0695990  62.0940410  30.4258640  37.3041660  62.6625410  30.3413310
  38.2511950  61.8016620  29.5326870  41.1584400  62.4703640  15.0511400
  40.6094500  62.9172940  15.6954140  41.7803660  61.9652890  15.5749070
  45.2119340  63.8245740  30.9833660  45.9528810  64.1621500  30.4801120
  44.4492020  63.9937800  30.4303430  33.0481130  58.8299010  31.7873190
  33.0886470  58.5312880  32.6958420  33.9026630  59.2306620  31.6280710
  36.8259520  61.4294560  16.9476700  37.2475940  61.2634430  17.7908090
  36.9510360  60.6194790  16.4531840  34.9886940  57.4091110  29.7547680
  34.4583400  56.9182060  29.1271020  35.6575010  57.8375310  29.2205610
  39.3387160  60.4532170  14.1953800  39.8592820  59.7381190  13.8294950
  39.9855560  61.0918040  14.4954310  43.8865000  61.8760570  29.5188870
  44.3006020  62.0305650  30.3679290  42.9516000  62.0015790  29.6814650
  44.3587170  59.2156730  31.5228020  44.9407940  58.4609050  31.4348500
  44.5348940  59.7464170  30.7459500  35.4759240  54.3753480  29.8344970
  35.3816110  53.7574230  29.1095840  34.8956630  55.1019770  29.6074880
  38.2420680  52.9326720  26.8672360  37.7937980  52.9550980  26.0217910
  37.6085880  52.5345740  27.4642660  38.6480230  61.8281050  27.4884800
  39.0668340  62.6713780  27.3161040  37.7288860  61.9653090  27.2591580
  40.9844130  59.5597230  28.8722640  41.1040340  58.9638370  29.6117480
  41.8438130  59.5966920  28.4523940  43.3232030  60.1134420  27.4485150
  42.7967250  60.6377040  26.8450290  43.6663370  60.7461810  28.0794880
  35.7218420  57.5027790  13.8934860  35.5207480  56.6395150  14.2548200
  35.5510470  57.4161150  12.9556460  36.4987650  68.1334060  28.6042530
  35.9608740  68.8580120  28.2851230  36.7521610  67.6564400  27.8139870
  37.7512900  56.1018580  30.1298460  38.3412590  55.7934430  30.8176280
  36.9333140  55.6298330  30.2858360  43.2006730  52.3136020  16.4221740
  43.4809020  51.4703920  16.7781160  42.4272460  52.5459130  16.9360490
  34.5201220  54.6028410  13.8812740  34.8227120  54.6095840  12.9731890
  35.2595810  54.2526270  14.3780400  39.3549860  69.3685270  28.8629180
  39.2808560  70.2720410  29.1701550  38.4528700  69.0497170  28.8351250
  37.7386150  53.5463030  14.8668940  37.3908150  52.8687020  14.2871390
  37.9398920  53.0852540  15.6812330  39.9035190  68.5343780  16.4855540
  40.7985980  68.8728750  16.5074300  39.9352820  67.8123190  15.8579820
  33.5431350  63.9070830  14.7142540  33.9806220  64.4500500  15.3700120
  34.0279080  63.0817780  14.7238880  30.7577150  66.6959860  22.1662800
  31.0880160  65.8280920  21.9341440  31.1868150  66.9018380  22.9967760
  35.3539070  65.0268870  19.8264770  35.0534610  64.9033840  20.7268680
  35.2476560  64.1677460  19.4180500  31.2467360  67.5630450  24.9044430
  30.8098350  67.7431250  25.7368580  31.8145040  68.3205070  24.7626150
  46.8829540  67.0647450  29.1921740  46.2831530  67.1240010  28.4485660
  47.0123440  66.1252430  29.3218590  48.1230990  64.8065270  14.5291450
  47.2923950  64.8741920  14.9998680  48.3002820  65.6969390  14.2258310
  47.5787450  61.5512750  17.0325650  48.3406360  62.1209400  17.1385340
  47.5941820  60.9839950  17.8033960  31.0791790  60.0750680  21.2633310
  30.4240630  59.8062320  20.6193010  31.9169740  59.9655160  20.8135290
  48.5847420  62.4062850  21.8767580  48.9556250  61.6230170  21.4703550
  49.2249350  63.0951950  21.6984880  45.5681180  63.7899430  27.2897900
  44.7541020  64.2196590  27.5523690  45.9755380  64.4017840  26.6766950
  47.6306620  61.8447120  14.1898170  47.9055460  62.7526000  14.0617390
  47.4417360  61.7809650  15.1260160  44.0282230  54.8691970  15.4851800
  44.4467110  54.6822950  14.6448460  43.7218290  54.0171020  15.7954730
  47.5271960  59.7816110  19.1827600  47.1515560  59.0144040  18.7508890
  46.7975080  60.1638810  19.6702530  46.9171580  58.9287630  28.8167120
  46.6857670  58.7000380  27.9165070  47.1776130  59.8487180  28.7712010
  46.8022920  58.0073600  22.4834840  47.3260400  57.5136250  21.8525010
  47.3882340  58.1423960  23.2282410  46.9812640  58.0913470  26.0054390
  46.0315350  58.0577010  26.1199380  47.1625650  59.0013580  25.7704160
  32.8357080  56.3415150  15.1153020  33.5448780  55.9198370  14.6300300
  32.1197020  56.4090380  14.4836370  46.2922890  57.2646950  18.4227250
  46.7882010  57.0317820  19.2076130  46.0938960  56.4258790  18.0064890
  47.7210050  55.9007900  20.9564930  47.6109330  55.7463940  21.8947200
  48.4817640  55.3728840  20.7140340  48.6100320  53.7315820  14.1971070
  49.5349630  53.5997000  13.9889360  48.5876110  53.8108640  15.1507520
  48.6838810  54.5026480  16.8227780  47.8890310  54.4371600  17.3520690
  48.8882090  55.4377120  16.8113130  45.6257230  68.5418030  20.8166170
  46.2216300  68.2202600  20.1400590  45.8835380  68.0689850  21.6079440
  33.5319800  64.9735940  30.9656800  33.4889430  64.6028850  31.8471260
  33.6630810  65.9113510  31.1058620  37.2325830  66.5295530  26.5666520
  36.9917190  66.7970090  25.6797040  38.1728470  66.7001260  26.6217380
  39.4380250  52.9928220  30.3223030  39.3769140  53.5850050  31.0718440
  40.3780630  52.8854180  30.1773290  48.4929990  68.5489910  27.3677160
  47.9988270  68.9458780  26.6504290  47.8843280  67.9239120  27.7614440
  33.3707830  67.9198190  28.0854580  32.7768150  67.7882890  28.8244620
  33.3631670  67.0836330  27.6196680  43.7234830  53.4201290  27.6726330
  43.3948190  52.6053050  27.2928060  44.6717130  53.3771100  27.5492020
  46.1769440  69.1913330  24.6463900  45.7172410  69.9429140  24.2721920
  45.5481900  68.4719800  24.5878700  33.0020060  65.2856570  27.0362620
  32.2754120  64.6661860  26.9688570  33.0629210  65.6797180  26.1660700
  36.6065160  67.5001570  23.8212030  37.1230180  66.8888930  23.2960290
  37.2562540  68.0030350  24.3123040  39.3460660  68.3910060  24.6481010
  39.6338470  68.1364360  23.7714020  39.8583880  67.8387420  25.2386580
  45.1158740  52.8323360  23.2726610  45.5566830  52.7768460  22.4248210
  44.8466330  53.7481370  23.3436790  46.9797310  52.4638600  21.2835430
  46.9185710  51.5199820  21.1366450  47.7589340  52.5718690  21.8288890
  31.2850060  68.6030960  20.2459380  31.1172100  67.9701640  20.9441270
  30.4184570  68.8090360  19.8953570  42.9516870  51.2129460  21.9776620
  43.5546240  51.7849670  22.4525140  42.2109860  51.7768900  21.7550520
  46.0951470  51.6151020  17.2516900  46.2902100  52.5134470  17.5184330
  45.3081340  51.3838100  17.7449850  32.8912760  67.2964190  17.6909520
  32.3660380  67.6772220  16.9871480  32.8157340  67.9214960  18.4119230
  39.4133020  69.3126160  32.0149210  40.3400330  69.0770430  32.0585170
  39.3983450  70.1398160  31.5335240  47.6478080  68.8551730  19.0123460
  47.8230270  68.1689470  18.3684380  46.9499650  69.3798780  18.6200130
  35.4905730  69.2446570  16.5658770  36.2224550  68.9605850  16.0182660
  35.7499400  69.0059850  17.4558150  34.6520520  65.3611300  16.5705100
  34.0229400  65.8296400  17.1190930  34.7668350  64.5160520  17.0051290
  45.9810580  68.5396020  31.8390250  46.7735900  68.0445250  31.6316210
  46.2743730  69.2186160  32.4465860  42.1070240  59.4116960   2.7206300
  42.0264290  58.4971570   2.4498010  41.6934660  59.9084030   2.0146010
  40.2388280  61.1895980   4.6015570  39.4630380  60.7096420   4.8914140
  40.8901210  60.5101630   4.4271730  34.2554110  61.5015790   5.4791330
  33.4238990  61.2464500   5.8787840  34.8635090  61.5726560   6.2149250
  44.2595710  65.5956170   3.3814700  43.7977240  64.8243410   3.7101870
  45.0721260  65.6222240   3.8867150  34.2355370  65.5355880   5.6749350
  34.5383410  64.6453620   5.4959570  34.9798960  66.0926100   5.4471600
  30.6279070  59.0623330   5.1473420  31.1995180  58.2945530   5.1477060
  30.6280610  59.3612090   4.2380030  40.4859020  67.8814180   3.0018690
  39.8670460  68.3371680   2.4313130  41.3410800  68.0365640   2.6008390
  39.6797270  63.8653170   4.6085730  39.6105550  62.9243110   4.4474860
  40.4417130  63.9554580   5.1808300  31.8703940  54.4707690   6.9342350
  31.6906780  53.5733440   7.2145110  31.4684020  55.0179560   7.6089300
  40.7102440  56.6723550   4.8354660  41.0867260  55.7995430   4.7228330
  40.6121950  57.0082250   3.9445100  44.4926560  54.1673990   1.7683000
  45.3136180  53.6770560   1.8108480  44.5260640  54.7571650   2.5214840
  32.4890610  56.9668190   5.5424690  33.1700720  57.2306560   6.1612090
  32.1738660  56.1269060   5.8762700  36.6815180  58.0135550   4.6297280
  37.1893400  58.5116520   5.2702300  37.2128420  57.2370750   4.4536640
  48.7826110  56.1840740   8.3326630  48.0778280  56.5722450   7.8141740
  49.0484030  56.8791030   8.9347560  34.9651280  52.6534110   8.8960700
  34.9669720  53.1706500   8.0906600  34.1355590  52.1764290   8.8730630
  36.2154130  62.2929290   7.0734200  35.8823510  62.9198210   7.7155270
  36.3920810  62.8191170   6.2935870  44.7288040  56.1074370   4.5410540
  44.0243610  56.3959260   5.1213650  45.0900200  56.9174480   4.1810100
  34.6466610  54.3644070   6.9031150  34.9883420  55.2086120   6.6085020
  33.7082420  54.5127810   7.0196490  35.4273230  64.2610090   8.8883380
  36.0447230  64.9361170   8.6067830  34.5666350  64.6698070   8.7970880
  46.3450820  65.7249500   6.8038020  45.6614340  66.3948610   6.7954690
  46.8845110  65.9230150   6.0382880  47.7974960  55.5529160   4.9319750
  46.8499870  55.5868140   5.0635180  48.1224950  56.3668110   5.3169110
  38.3294500  51.8526340   3.2275740  38.6369480  51.2973230   2.5111240
  37.3995200  51.9870800   3.0448730  43.8809560  67.5693630   5.5183200
  43.8936720  67.1655920   4.6505460  43.3284780  68.3440920   5.4144630
  43.2795000  62.4723470   6.8465810  43.6963790  62.2583580   6.0119270
  44.0034820  62.7296260   7.4174430  47.2257100  60.8710690   6.9382050
  46.3975730  60.9403780   6.4632180  47.8207580  61.4565000   6.4697880
  44.1899110  57.6580010   7.8836920  43.7770290  58.4833720   8.1376910
  43.4575060  57.0725050   7.6913280  36.3231900  60.4439910   2.7455590
  35.9188900  59.7317160   2.2501490  36.4095020  60.0993150   3.6343630
  36.7913600  64.1307470   4.9094800  36.4941890  63.5252940   4.2302580
  37.7413420  64.1684780   4.7984160  35.0360520  57.2183120   6.5254630
  35.5875110  57.3278460   5.7507880  35.5504030  57.5920720   7.2409860
  44.8799210  67.7039340   8.5717900  44.4029770  68.5111530   8.3790510
  44.1961000  67.0517670   8.7244110  35.8832030  63.8689160  11.5602600
  34.9860560  64.0929130  11.8076000  35.9084900  63.9924100  10.6114000
  34.7103250  60.7402480  10.1359970  34.5711020  61.6125280  10.5047370
  33.8284610  60.3975290   9.9907910  36.5083600  66.6824180  12.3445120
  36.4799030  67.0867130  11.4773550  36.3448570  65.7534540  12.1816720
  48.4598420  67.4651280  13.6409290  48.9358140  67.9434170  14.3198370
  49.0805580  67.3968770  12.9154790  30.6621900  62.5100030   6.0530880
  30.7402320  62.6448800   5.1086600  31.2763580  61.8015920   6.2459000
  47.8631670  64.6564130  10.8009300  47.9894730  64.4176010   9.8826480
  47.9053050  63.8248670  11.2731380  41.7248410  68.3592130   9.3704110
  42.2393080  68.2700140  10.1726540  40.8817490  68.7051830   9.6632020
  47.7155680  56.7096590  11.7659040  47.0999950  57.2176260  11.2374500
  47.3952100  55.8094920  11.7084980  30.7181420  63.5514200   8.5925340
  30.8812460  63.0819560   7.7744710  31.1833870  63.0437760   9.2574180
  35.4900190  52.6819960   3.6285910  35.0468340  53.4629500   3.2970430
  36.0485180  53.0049850   4.3356850  39.7770000  55.5488480   9.2321230
  39.3149370  55.7571500  10.0441170  39.3748110  54.7347830   8.9291900
  44.7774510  56.7697430  10.3617890  43.9268100  56.4703180  10.6826960
  44.6176300  57.0139440   9.4501710  41.8724220  58.2699180  12.4616680
  42.1977630  57.4362930  12.1218910  42.6604550  58.7927700  12.6095010
  37.5276090  53.2267290   5.4875510  37.8248420  54.1330120   5.4067530
  38.0761650  52.7386070   4.8735080  37.7213620  58.7039110  12.0227430
  37.6257220  57.7633840  11.8727830  38.5645600  58.9254180  11.6275500
  32.8524160  55.1152780  10.1761210  32.4587550  55.9627990  10.3833990
  32.1642560  54.4779150  10.3669850  39.4269210  55.1987750  13.2457950
  38.7367530  55.0059950  13.8804040  40.1701510  55.4822390  13.7782250
  30.1541210  53.0381240   4.2091290  29.8654260  53.6084100   4.9216270
  30.8986970  52.5585690   4.5722520  41.7032180  59.0386190   6.0811870
  40.9713300  59.5473000   6.4301970  41.3056520  58.2216170   5.7800650
  38.1409570  55.7140390   4.4864360  38.1445630  55.2730340   3.6368900
  39.0360690  56.0357720   4.5936180  33.9911950  55.5966880   3.4458570
  33.6512000  56.0742110   4.2025620  33.2289270  55.1432000   3.0859670
  42.1658090  54.4919870   5.4934810  42.1830830  54.9428520   6.3376660
  41.9173670  53.5925510   5.7068250  45.5928840  51.9052050  11.3321190
  45.9174610  51.1741710  11.8579170  45.6285350  51.5865690  10.4302180
  32.2920400  62.9265630  10.7521150  31.9075190  62.2859300  11.3504110
  32.6032590  63.6301750  11.3215880  38.4417540  59.7742170   6.2329770
  38.8087670  59.3000740   6.9791110  38.2522600  60.6483740   6.5738110
  31.3058030  54.5185860   2.3623240  31.0204950  54.1541530   3.2001860
  31.2436890  53.7866320   1.7486380  36.2316910  58.8150810   8.5513980
  35.9273980  59.6942790   8.7764340  37.1863370  58.8750600   8.5871420
  45.5186680  62.0177160   4.9407220  46.2385800  62.5132450   4.5503330
  45.3168500  61.3395050   4.2961090  40.9005480  62.0886220  10.8276220
  40.8342790  61.1681890  10.5733810  40.2710620  62.1861660  11.5420860
  34.8036100  62.6892180   2.7859640  35.3214770  61.8860440   2.7316530
  34.3520120  62.6271320   3.6276470  32.2880640  59.6553550   9.6985340
  31.9295580  60.3207400  10.2858680  31.9935200  58.8237100  10.0697960
  35.4893760  60.1137790  12.5824890  35.1893900  60.2594970  11.6852710
  36.2605000  59.5543080  12.4898280  40.8322210  64.9106790  10.5780020
  40.8466750  63.9787750  10.3598930  40.1247310  64.9966550  11.2169790
  47.0433420  61.5514130   9.9248600  46.3181610  62.1442910   9.7277990
  47.5708880  61.5437670   9.1261970  42.5733010  63.2774300   3.4232450
  42.9256830  62.6802430   2.7633820  41.6895340  62.9518530   3.5940700
  40.2656110  66.5524360   7.6720520  40.9098330  66.7583740   8.3493940
  40.6285550  65.7912760   7.2191370  41.5388190  64.5556710   6.3897970
  42.1810420  63.8549870   6.5030140  42.0637540  65.3355150   6.2094860
  43.3125810  65.3551610   9.5934030  43.6482050  65.9418300  10.2711950
  42.3926150  65.2244320   9.8231820  30.8629210  53.1446790  10.3757440
  30.1487730  53.3443710  10.9810050  31.2824250  52.3686360  10.7472240
  31.1501800  67.1327050  11.3623970  31.2592920  66.1921790  11.2219360
  30.4982360  67.3981800  10.7137700  39.1414390  65.4042940  12.7622090
  38.8211260  64.6852180  13.3067780  38.4672750  66.0798010  12.8358150
  42.3567990  55.6369100   8.1258890  42.7248810  54.8164310   8.4538460
  41.4966190  55.6970990   8.5414540  39.3169980  58.2908690   8.3496860
  39.8155230  58.7654510   9.0148710  39.4592930  57.3672210   8.5566890
  46.5236840  54.5076650   9.1925250  46.0210440  55.2482050   9.5319060
  47.3393500  54.8960650   8.8762040  44.8158850  59.7509830   2.6386610
  43.8748990  59.7660060   2.8134300  45.1302920  58.9645790   3.0846910
  46.8184430  66.9218680   4.3140870  46.9431850  67.7449850   4.7864680
  47.6849990  66.7109410   3.9665020  34.2901960  69.0149890   3.9858000
  35.0264440  68.4665350   4.2566570  34.6742880  69.8805900   3.8463990
  33.2960240  68.1995960  13.1743580  34.0972970  68.5208010  13.5878980
  32.7812060  67.8391540  13.8963490  42.1324870  64.3075830  13.1218990
  41.5263030  64.3307430  12.3814740  41.8278980  63.5758870  13.6586240
  43.5625240  68.0356120  11.7328400  44.5146990  67.9514140  11.6828640
  43.4153460  68.6997830  12.4062190  31.0158050  60.6869420  12.1179630
  31.5197070  60.1076700  12.6895860  30.2765470  60.9709650  12.6556000
  38.0695990  62.0940410  11.6515150  37.3041660  62.6625410  11.5669820
  38.2511950  61.8016620  10.7583380  45.2119340  63.8245740  12.2090170
  45.9528810  64.1621500  11.7057630  44.4492020  63.9937800  11.6559940
  33.0481130  58.8299010  13.0129700  33.0886470  58.5312880  13.9214930
  33.9026630  59.2306620  12.8537220  34.9886940  57.4091110  10.9804190
  34.4583400  56.9182060  10.3527530  35.6575010  57.8375310  10.4462120
  43.8865000  61.8760570  10.7445380  44.3006020  62.0305650  11.5935800
  42.9516000  62.0015790  10.9071160  44.3587170  59.2156730  12.7484530
  44.9407940  58.4609050  12.6605010  44.5348940  59.7464170  11.9716010
  35.4759240  54.3753480  11.0601480  35.3816110  53.7574230  10.3352350
  34.8956630  55.1019770  10.8331390  38.2420680  52.9326720   8.0928870
  37.7937980  52.9550980   7.2474420  37.6085880  52.5345740   8.6899170
  38.6480230  61.8281050   8.7141310  39.0668340  62.6713780   8.5417550
  37.7288860  61.9653090   8.4848090  40.9844130  59.5597230  10.0979150
  41.1040340  58.9638370  10.8373990  41.8438130  59.5966920   9.6780450
  43.3232030  60.1134420   8.6741660  42.7967250  60.6377040   8.0706800
  43.6663370  60.7461810   9.3051390  36.4987650  68.1334060   9.8299040
  35.9608740  68.8580120   9.5107740  36.7521610  67.6564400   9.0396380
  37.7512900  56.1018580  11.3554970  38.3412590  55.7934430  12.0432790
  36.9333140  55.6298330  11.5114870  42.5706330  55.7184390  11.5887990
  41.8821850  55.0565930  11.5237980  43.2912350  55.2722660  12.0336450
  39.3549860  69.3685270  10.0885690  39.2808560  70.2720410  10.3958060
  38.4528700  69.0497170  10.0607760  30.7577150  66.6959860   3.3919310
  31.0880160  65.8280920   3.1597950  31.1868150  66.9018380   4.2224270
  31.2467360  67.5630450   6.1300940  30.8098350  67.7431250   6.9625090
  31.8145040  68.3205070   5.9882660  46.8829540  67.0647450  10.4178250
  46.2831530  67.1240010   9.6742170  47.0123440  66.1252430  10.5475100
  31.0791790  60.0750680   2.4889820  30.4240630  59.8062320   1.8449520
  31.9169740  59.9655160   2.0391800  48.5847420  62.4062850   3.1024090
  48.9556250  61.6230170   2.6960060  49.2249350  63.0951950   2.9241390
  45.5681180  63.7899430   8.5154410  44.7541020  64.2196590   8.7780200
  45.9755380  64.4017840   7.9023460  32.1167720  60.4603250   7.0293160
  32.4840760  60.3730650   7.9089180  31.5478540  59.6969800   6.9300020
  46.9171580  58.9287630  10.0423630  46.6857670  58.7000380   9.1421580
  47.1776130  59.8487180   9.9968520  31.6683720  57.3712340  10.9351580
  30.7739770  57.3379100  11.2745290  32.2081270  57.5699130  11.7002830
  45.3559650  54.1544060  12.8203330  46.2329830  54.1627460  13.2037330
  45.3680490  53.4174900  12.2095680  46.8022920  58.0073600   3.7091350
  47.3260400  57.5136250   3.0781520  47.3882340  58.1423960   4.4538920
  46.9812640  58.0913470   7.2310900  46.0315350  58.0577010   7.3455890
  47.1625650  59.0013580   6.9960670  32.1723430  51.6460670   5.2834800
  32.8199620  51.0958050   4.8429960  32.5925270  51.9003820   6.1050610
  47.7210050  55.9007900   2.1821440  47.6109330  55.7463940   3.1203710
  48.4817640  55.3728840   1.9396850  46.0675770  51.8402030   8.6404440
  46.7047990  52.4536170   9.0063630  46.2150660  51.8762690   7.6953670
  31.9255430  51.8016340   8.0260120  31.5770250  52.2580160   8.7918300
  31.5943130  50.9073470   8.1082550  33.5319800  64.9735940  12.1913310
  33.4889430  64.6028850  13.0727770  33.6630810  65.9113510  12.3315130
  37.2325830  66.5295530   7.7923030  36.9917190  66.7970090   6.9053550
  38.1728470  66.7001260   7.8473890  39.4380250  52.9928220  11.5479540
  39.3769140  53.5850050  12.2974950  40.3780630  52.8854180  11.4029800
  42.0754810  52.6498280  11.1871830  42.6895220  52.9677570  10.5252910
  42.6204370  52.1646870  11.8067690  48.4929990  68.5489910   8.5933670
  47.9988270  68.9458780   7.8760800  47.8843280  67.9239120   8.9870950
  32.5976070  51.3292540  11.3010890  33.1459060  51.1480590  10.5377000
  32.6631380  50.5386650  11.8367200  33.3707830  67.9198190   9.3111090
  32.7768150  67.7882890  10.0501130  33.3631670  67.0836330   8.8453190
  42.8162850  51.2130420   7.5141120  41.9422690  51.5465530   7.3114050
  42.7073600  50.7403600   8.3392990  43.7234830  53.4201290   8.8982840
  43.3948190  52.6053050   8.5184570  44.6717130  53.3771100   8.7748530
  46.1769440  69.1913330   5.8720410  45.7172410  69.9429140   5.4978430
  45.5481900  68.4719800   5.8135210  33.0020060  65.2856570   8.2619130
  32.2754120  64.6661860   8.1945080  33.0629210  65.6797180   7.3917210
  36.6065160  67.5001570   5.0468540  37.1230180  66.8888930   4.5216800
  37.2562540  68.0030350   5.5379550  39.3460660  68.3910060   5.8737520
  39.6338470  68.1364360   4.9970530  39.8583880  67.8387420   6.4643090
  40.5637670  52.1300260   6.4534030  39.7809460  52.6045760   6.7330790
  40.2700600  51.2255090   6.3447210  45.1158740  52.8323360   4.4983120
  45.5566830  52.7768460   3.6504720  44.8466330  53.7481370   4.5693300
  46.9797310  52.4638600   2.5091940  46.9185710  51.5199820   2.3622960
  47.7589340  52.5718690   3.0545400  42.9516870  51.2129460   3.2033130
  43.5546240  51.7849670   3.6781650  42.2109860  51.7768900   2.9807030
  39.4133020  69.3126160  13.2405720  40.3400330  69.0770430  13.2841680
  39.3983450  70.1398160  12.7591750  36.5996630  51.9770910  13.0047600
  36.3180900  52.4804510  12.2408420  36.9816330  51.1792660  12.6389730
  43.2012090  51.3924490  13.5828070  43.0877540  51.7119100  14.4779590
  44.0181830  51.7937000  13.2865350  45.9810580  68.5396020  13.0646760
  46.7735900  68.0445250  12.8572720  46.2743730  69.2186160  13.6722370
  42.1070240  40.6373470  77.8180260  42.0264290  39.7228080  77.5471970
  41.6934660  41.1340540  77.1119970  40.2388280  42.4152490  79.6989530
  39.4630380  41.9352930  79.9888100  40.8901210  41.7358140  79.5245690
  34.2554110  42.7272300  80.5765290  33.4238990  42.4721010  80.9761800
  34.8635090  42.7983070  81.3123210  44.2595710  46.8212680  78.4788660
  43.7977240  46.0499920  78.8075830  45.0721260  46.8478750  78.9841110
  34.2355370  46.7612390  80.7723310  34.5383410  45.8710130  80.5933530
  34.9798960  47.3182610  80.5445560  32.6646060  37.6874190  74.3607680
  31.7762760  38.0290160  74.2587560  32.9487250  37.4874510  73.4688510
  30.6279070  40.2879840  80.2447380  31.1995180  39.5202040  80.2451020
  30.6280610  40.5868600  79.3353990  40.4859020  49.1070690  78.0992650
  39.8670460  49.5628190  77.5287090  41.3410800  49.2622150  77.6982350
  39.6797270  45.0909680  79.7059690  39.6105550  44.1499620  79.5448820
  40.4417130  45.1811090  80.2782260  40.7102440  37.8980060  79.9328620
  41.0867260  37.0251940  79.8202290  40.6121950  38.2338760  79.0419060
  34.8407450  36.2705690  75.3946060  34.9474200  37.1709420  75.7014820
  33.9299810  36.2223660  75.1040710  44.4926560  35.3930500  76.8656960
  45.3136180  34.9027070  76.9082440  44.5260640  35.9828160  77.6188800
  32.4890610  38.1924700  80.6398650  33.1700720  38.4563070  81.2586050
  32.1738660  37.3525570  80.9736660  36.6815180  39.2392060  79.7271240
  37.1893400  39.7373030  80.3676260  37.2128420  38.4627260  79.5510600
  41.3522370  43.9909930  75.4924560  40.7339640  44.4559380  74.9287280
  41.8645620  44.6837410  75.9094070  44.7288040  37.3330880  79.6384500
  44.0243610  37.6215770  80.2187610  45.0900200  38.1430990  79.2784060
  30.7205570  44.6766460  72.8664190  30.3433550  45.1653560  72.1349090
  30.9778640  45.3491740  73.4970720  46.3450820  46.9506010  81.9011980
  45.6614340  47.6205120  81.8928650  46.8845110  47.1486660  81.1356840
  47.7974960  36.7785670  80.0293710  46.8499870  36.8124650  80.1609140
  48.1224950  37.5924620  80.4143070  38.3294500  33.0782850  78.3249700
  38.6369480  32.5229740  77.6085200  37.3995200  33.2127310  78.1422690
  43.8809560  48.7950140  80.6157160  43.8936720  48.3912430  79.7479420
  43.3284780  49.5697430  80.5118590  45.1754980  45.5166360  75.7047330
  45.0651310  44.5740690  75.8296750  45.1723230  45.8782000  76.5910090
  40.7175260  41.1431680  75.0609820  39.7904540  41.0769060  75.2898290
  40.8700080  42.0811810  74.9465060  47.2257100  42.0967200  82.0356010
  46.3975730  42.1660290  81.5606140  47.8207580  42.6821510  81.5671840
  44.7472550  42.7051980  75.5645070  44.1284970  42.3671530  74.9171370
  44.7297000  42.0611740  76.2724260  36.3231900  41.6696420  77.8429550
  35.9188900  40.9573670  77.3475450  36.4095020  41.3249660  78.7317590
  36.7913600  45.3563980  80.0068760  36.4941890  44.7509450  79.3276540
  37.7413420  45.3941290  79.8958120  42.9237250  41.9438790  72.5717820
  43.3630530  41.1061220  72.4255640  43.6365670  42.5768190  72.6581960
  41.0332630  46.8834860  76.5399060  41.4728540  47.6259190  76.1254450
  40.9719520  47.1261430  77.4638020  46.5054390  33.1981600  70.8858860
  46.1927050  33.2908430  71.7857930  47.2666860  33.7762630  70.8356290
  33.0236530  40.5641400  75.3436200  32.9034130  41.2903490  74.7317470
  32.7137420  39.7944310  74.8664110  30.6621900  43.7356540  81.1504840
  30.7402320  43.8705310  80.2060560  31.2763580  43.0272430  81.3432960
  31.9069530  45.4356730  77.5611020  31.4997610  45.5771320  76.7064620
  32.7982540  45.1516890  77.3582230  43.7002810  49.8703980  73.8962070
  43.5403950  49.5806920  74.7943900  43.5349520  49.0944110  73.3607300
  36.1791190  49.6502510  75.6733690  36.0033670  48.7338050  75.4601490
  35.3246930  50.0089800  75.9131490  43.4028940  47.3791540  72.4560070
  42.7094100  47.3768830  71.7962350  44.1451800  46.9550860  72.0254240
  42.9678870  49.0054250  76.5308560  43.4235820  48.2243630  76.8447180
  43.3071390  49.7161070  77.0749740  35.4900190  33.9076470  78.7259870
  35.0468340  34.6886010  78.3944390  36.0485180  34.2306360  79.4330810
  38.6059010  33.5287170  73.6065700  37.9813190  33.5247040  74.3319010
  38.5189130  32.6618130  73.2101670  37.5276090  34.4523800  80.5849470
  37.8248420  35.3586630  80.5041490  38.0761650  33.9642580  79.9709040
  35.2814410  39.0310040  76.4541120  35.0555330  38.8147210  77.3587740
  34.5006940  39.4638500  76.1087090  42.5112170  39.0373410  75.0531770
  41.9121060  39.7609210  74.8695390  43.0591780  38.9750190  74.2708220
  41.1177040  37.6736950  77.0835050  41.5106610  37.9909150  76.2703740
  41.4793890  36.7948830  77.1979570  30.1541210  34.2637750  79.3065250
  29.8654260  34.8340610  80.0190230  30.8986970  33.7842200  79.6696480
  30.3411440  38.2057870  70.5167970  30.2586110  39.1488630  70.6582960
  29.9894500  38.0632780  69.6380320  41.7032180  40.2642700  81.1785830
  40.9713300  40.7729510  81.5275930  41.3056520  39.4472680  80.8774610
  38.1409570  36.9396900  79.5838320  38.1445630  36.4986850  78.7342860
  39.0360690  37.2614230  79.6910140  33.9911950  36.8223390  78.5432530
  33.6512000  37.2998620  79.2999580  33.2289270  36.3688510  78.1833630
  42.1658090  35.7176380  80.5908770  42.1830830  36.1685030  81.4350620
  41.9173670  34.8182020  80.8042210  31.3058030  35.7442370  77.4597200
  31.0204950  35.3798040  78.2975820  31.2436890  35.0122830  76.8460340
  34.7598700  44.2468310  74.2454790  33.9860960  43.7065930  74.0853510
  35.4893330  43.7274920  73.9072550  45.5186680  43.2433670  80.0381180
  46.2385800  43.7388960  79.6477290  45.3168500  42.5651560  79.3935050
  40.9796620  34.6371630  74.1810570  40.1661230  34.1384800  74.1055880
  40.7858570  35.4769880  73.7646920  43.6945010  39.0091280  72.4772730
  44.5824630  39.3208510  72.3024070  43.6650100  38.1363530  72.0853310
  34.8036100  43.9148690  77.8833600  35.3214770  43.1116950  77.8290490
  34.3520120  43.8527830  78.7250430  39.6905600  45.1814970  73.1560900
  40.0321300  45.9257200  72.6604220  38.8618310  45.4946090  73.5185730
  45.9659280  40.3203120  71.9452590  45.8823000  40.7517340  71.0949030
  46.6853470  40.7801470  72.3779410  46.9946530  47.1745380  74.6734720
  46.3522690  46.5201000  74.9478440  46.6077190  47.5800470  73.8975390
  42.5733010  44.5030810  78.5206410  42.9256830  43.9058940  77.8607780
  41.6895340  44.1775040  78.6914660  38.6596290  45.2628500  75.9276820
  39.3467420  45.8097710  76.3084410  37.8728710  45.8069230  75.9626430
  30.7988690  40.8801320  71.4193900  31.6683540  41.1626120  71.7029820
  30.3079010  41.6937190  71.3042710  37.9623500  42.2674530  75.5402180
  38.4186280  43.0779780  75.7662370  37.6111710  41.9497670  76.3720670
  33.8635280  32.6112180  76.0124700  33.7349910  32.6030080  76.9609620
  33.0397300  32.9495270  75.6615710  41.5388190  45.7813220  81.4871930
  42.1810420  45.0806380  81.6004100  42.0637540  46.5611660  81.3068820
  45.3843910  46.0661840  71.2111070  45.1581490  45.3492280  71.8035710
  44.9940110  45.8174280  70.3732820  31.1659940  50.0928700  71.9855530
  31.5257580  50.6918040  71.3312800  31.0252280  50.6388590  72.7590560
  44.9660160  43.9833780  72.8725230  44.6781860  44.4446470  73.6603110
  45.7612330  43.5231550  73.1409450  37.1828560  47.4759900  72.8029200
  37.1738660  48.2089590  72.1873710  36.2626920  47.2291480  72.8956160
  32.7835200  42.6974790  73.5475960  32.1763150  43.4373690  73.5571260
  33.2584550  42.7874150  72.7214160  45.7230020  35.8182550  74.0320410
  45.0943180  35.9228220  73.3178640  45.2281940  36.0379330  74.8214290
  40.1688160  47.5388140  71.4654390  40.2700140  47.3352130  70.5356370
  39.2689900  47.2846420  71.6702170  37.6914050  38.0968500  75.4478290
  36.9830200  38.5654840  75.8891900  37.9758530  37.4390510  76.0823480
  41.7229480  34.8219160  76.8874080  41.5997260  34.8405290  75.9383590
  42.6714040  34.8698100  77.0072480  38.8106270  50.0574460  76.1602060
  39.0647770  50.0195850  75.2381430  37.8618750  49.9307790  76.1530310
  44.8158850  40.9766340  77.7360570  43.8748990  40.9916570  77.9108260
  45.1302920  40.1902300  78.1820870  34.7940490  42.6585940  71.2964530
  35.5603760  42.5467300  71.8589960  34.8715180  41.9623910  70.6441300
  33.4887250  40.0911010  71.9797420  33.5690840  39.1438520  72.0914820
  34.3807000  40.4217890  72.0858080  46.8184430  48.1475190  79.4114830
  46.9431850  48.9706360  79.8838640  47.6849990  47.9365920  79.0638980
  34.2901960  50.2406400  79.0831960  35.0264440  49.6921860  79.3540530
  34.6742880  51.1062410  78.9437950  31.1747440  46.3079970  74.9573470
  30.2487220  46.5501110  74.9478880  31.6403870  47.1354230  74.8358220
  37.4004270  49.4136710  70.9057530  38.1932880  49.7025540  70.4539320
  36.8808620  48.9828880  70.2270010  46.4534440  48.6406840  72.3294270
  46.1675950  48.2271980  71.5148450  46.2553990  49.5694550  72.2094790
  37.9181670  44.6340120  70.7699880  37.8132310  44.0192470  71.4961260
  37.7505890  44.1106010  69.9862890  41.1584400  43.6960150  71.3741870
  40.6094500  44.1429450  72.0184610  41.7803660  43.1909400  71.8979540
  36.8259520  42.6551070  73.2707170  37.2475940  42.4890940  74.1138560
  36.9510360  41.8451300  72.7762310  39.3387160  41.6788680  70.5184270
  39.8592820  40.9637700  70.1525420  39.9855560  42.3174550  70.8184780
  43.2006730  33.5392530  72.7452210  43.4809020  32.6960430  73.1011630
  42.4272460  33.7715640  73.2590960  39.9035190  49.7600290  72.8086010
  40.7985980  50.0985260  72.8304770  39.9352820  49.0379700  72.1810290
  33.5431350  45.1327340  71.0373010  33.9806220  45.6757010  71.6930590
  34.0279080  44.3074290  71.0469350  30.7577150  47.9216370  78.4893270
  31.0880160  47.0537430  78.2571910  31.1868150  48.1274890  79.3198230
  35.3539070  46.2525380  76.1495240  35.0534610  46.1290350  77.0499150
  35.2476560  45.3933970  75.7410970  48.1230990  46.0321780  70.8521920
  47.2923950  46.0998430  71.3229150  48.3002820  46.9225900  70.5488780
  47.5787450  42.7769260  73.3556120  48.3406360  43.3465910  73.4615810
  47.5941820  42.2096460  74.1264430  31.0791790  41.3007190  77.5863780
  30.4240630  41.0318830  76.9423480  31.9169740  41.1911670  77.1365760
  48.5847420  43.6319360  78.1998050  48.9556250  42.8486680  77.7934020
  49.2249350  44.3208460  78.0215350  47.6306620  43.0703630  70.5128640
  47.9055460  43.9782510  70.3847860  47.4417360  43.0066160  71.4490630
  44.0282230  36.0948480  71.8082270  44.4467110  35.9079460  70.9678930
  43.7218290  35.2427530  72.1185200  47.5271960  41.0072620  75.5058070
  47.1515560  40.2400550  75.0739360  46.7975080  41.3895320  75.9933000
  30.2929870  38.5106120  73.5289110  29.3893950  38.7736320  73.3540770
  30.7770490  38.7817290  72.7489070  46.8022920  39.2330110  78.8065310
  47.3260400  38.7392760  78.1755480  47.3882340  39.3680470  79.5512880
  46.2922890  38.4903460  74.7457720  46.7882010  38.2574330  75.5306600
  46.0938960  37.6515300  74.3295360  32.1723430  32.8717180  80.3808760
  32.8199620  32.3214560  79.9403920  32.5925270  33.1260330  81.2024570
  47.7210050  37.1264410  77.2795400  47.6109330  36.9720450  78.2177670
  48.4817640  36.5985350  77.0370810  48.6100320  34.9572330  70.5201540
  49.5349630  34.8253510  70.3119830  48.5876110  35.0365150  71.4737990
  48.6838810  35.7282990  73.1458250  47.8890310  35.6628110  73.6751160
  48.8882090  36.6633630  73.1343600  45.6257230  49.7674540  77.1396640
  46.2216300  49.4459110  76.4631060  45.8835380  49.2946360  77.9309910
  46.1769440  50.4169840  80.9694370  45.7172410  51.1685650  80.5952390
  45.5481900  49.6976310  80.9109170  36.6065160  48.7258080  80.1442500
  37.1230180  48.1145440  79.6190760  37.2562540  49.2286860  80.6353510
  39.3460660  49.6166570  80.9711480  39.6338470  49.3620870  80.0944490
  39.8583880  49.0643930  81.5617050  40.5637670  33.3556770  81.5507990
  39.7809460  33.8302270  81.8304750  40.2700600  32.4511600  81.4421170
  45.1158740  34.0579870  79.5957080  45.5566830  34.0024970  78.7478680
  44.8466330  34.9737880  79.6667260  46.9797310  33.6895110  77.6065900
  46.9185710  32.7456330  77.4596920  47.7589340  33.7975200  78.1519360
  31.2850060  49.8287470  76.5689850  31.1172100  49.1958150  77.2671740
  30.4184570  50.0346870  76.2184040  31.9078080  33.6604250  74.0721710
  32.6657440  33.7733130  73.4985740  31.4455250  34.4973450  74.0265140
  38.4491890  35.7743520  77.0624020  37.6366400  35.4000410  76.7219900
  38.9533530  35.0188600  77.3645210  42.9516870  32.4385970  78.3007090
  43.5546240  33.0106180  78.7755610  42.2109860  33.0025410  78.0780990
  46.0951470  32.8407530  73.5747370  46.2902100  33.7390980  73.8414800
  45.3081340  32.6094610  74.0680320  32.8912760  48.5220700  74.0139990
  32.3660380  48.9028730  73.3101950  32.8157340  49.1471470  74.7349700
  34.2803230  34.1868300  72.6123680  34.8095990  33.3998100  72.4831630
  34.9131550  34.8659490  72.8459210  36.4741070  33.9243440  75.6669070
  35.8443810  33.2230750  75.8339200  35.9346210  34.6847570  75.4502230
  47.6478080  50.0808240  75.3353930  47.8230270  49.3945980  74.6914850
  46.9499650  50.6055290  74.9430600  35.4905730  50.4703080  72.8889240
  36.2224550  50.1862360  72.3413130  35.7499400  50.2316360  73.7788620
  34.6520520  46.5867810  72.8935570  34.0229400  47.0552910  73.4421400
  34.7668350  45.7417030  73.3281760  35.8832030  45.0945670  67.8833070
  34.9860560  45.3185640  68.1306470  35.9084900  45.2180610  66.9344470
  34.7103250  41.9658990  66.4590440  34.5711020  42.8381790  66.8277840
  33.8284610  41.6231800  66.3138380  36.5083600  47.9080690  68.6675590
  36.4799030  48.3123640  67.8004020  36.3448570  46.9791050  68.5047190
  48.4598420  48.6907790  69.9639760  48.9358140  49.1690680  70.6428840
  49.0805580  48.6225280  69.2385260  47.7155680  37.9353100  68.0889510
  47.0999950  38.4432770  67.5604970  47.3952100  37.0351430  68.0315450
  45.5928840  33.1308560  67.6551660  45.9174610  32.3998220  68.1809640
  45.6285350  32.8122200  66.7532650  40.9005480  43.3142730  67.1506690
  40.8342790  42.3938400  66.8964280  40.2710620  43.4118170  67.8651330
  32.2880640  40.8810060  66.0215810  31.9295580  41.5463910  66.6089150
  31.9935200  40.0493610  66.3928430  35.4893760  41.3394300  68.9055360
  35.1893900  41.4851480  68.0083180  36.2605000  40.7799590  68.8128750
  40.8322210  46.1363300  66.9010490  40.8466750  45.2044260  66.6829400
  40.1247310  46.2223060  67.5400260  31.1501800  48.3583560  67.6854440
  31.2592920  47.4178300  67.5449830  30.4982360  48.6238310  67.0368170
  39.1414390  46.6299450  69.0852560  38.8211260  45.9108690  69.6298250
  38.4672750  47.3054520  69.1588620  33.2960240  49.4252470  69.4974050
  34.0972970  49.7464520  69.9109450  32.7812060  49.0648050  70.2193960
  42.1324870  45.5332340  69.4449460  41.5263030  45.5563940  68.7045210
  41.8278980  44.8015380  69.9816710  43.5625240  49.2612630  68.0558870
  44.5146990  49.1770650  68.0059110  43.4153460  49.9254340  68.7292660
  31.0158050  41.9125930  68.4410100  31.5197070  41.3333210  69.0126330
  30.2765470  42.1966160  68.9786470  38.0695990  43.3196920  67.9745620
  37.3041660  43.8881920  67.8900290  38.2511950  43.0273130  67.0813850
  33.0481130  40.0555520  69.3360170  33.0886470  39.7569390  70.2445400
  33.9026630  40.4563130  69.1767690  44.3587170  40.4413240  69.0715000
  44.9407940  39.6865560  68.9835480  44.5348940  40.9720680  68.2946480
  36.4987650  49.3590570  66.1529510  35.9608740  50.0836630  65.8338210
  36.7521610  48.8820910  65.3626850  39.3549860  50.5941780  66.4116160
  39.2808560  51.4976920  66.7188530  38.4528700  50.2753680  66.3838230
  31.6683720  38.5968850  67.2582050  30.7739770  38.5635610  67.5975760
  32.2081270  38.7955640  68.0233300  33.5319800  46.1992450  68.5143780
  33.4889430  45.8285360  69.3958240  33.6630810  47.1370020  68.6545600
  39.4133020  50.5382670  69.5636190  40.3400330  50.3026940  69.6072150
  39.3983450  51.3654670  69.0822220  45.9810580  49.7652530  69.3877230
  46.7735900  49.2701760  69.1803190  46.2743730  50.4442670  69.9952840
  48.6100320  34.9572330  32.9714560  49.5349630  34.8253510  32.7632850
  48.5876110  35.0365150  33.9251010  48.6838810  35.7282990  35.5971270
  47.8890310  35.6628110  36.1264180  48.8882090  36.6633630  35.5856620
  45.1754980  45.5166360  19.3816860  45.0651310  44.5740690  19.5066280
  45.1723230  45.8782000  20.2679620  40.7044340  37.4148680  15.7346510
  39.7648010  37.5762640  15.8198970  41.0227600  38.1334360  15.1882500
  46.5054390  33.1981600  14.5628390  46.1927050  33.2908430  15.4627460
  47.2666860  33.7762630  14.5125820  47.8631670  45.8820640  29.5752790
  47.9894730  45.6432520  28.6569970  47.9053050  45.0505180  30.0474870
  43.7002810  49.8703980  17.5731600  43.5403950  49.5806920  18.4713430
  43.5349520  49.0944110  17.0376830  43.4028940  47.3791540  16.1329600
  42.7094100  47.3768830  15.4731880  44.1451800  46.9550860  15.7023770
  42.9678870  49.0054250  20.2078090  43.4235820  48.2243630  20.5216710
  43.3071390  49.7161070  20.7519270  38.6059010  33.5287170  17.2835230
  37.9813190  33.5247040  18.0088540  38.5189130  32.6618130  16.8871200
  40.9796620  34.6371630  17.8580100  40.1661230  34.1384800  17.7825410
  40.7858570  35.4769880  17.4416450  43.6945010  39.0091280  16.1542260
  44.5824630  39.3208510  15.9793600  43.6650100  38.1363530  15.7622840
  45.9659280  40.3203120  15.6222120  45.8823000  40.7517340  14.7718560
  46.6853470  40.7801470  16.0548940  46.9946530  47.1745380  18.3504250
  46.3522690  46.5201000  18.6247970  46.6077190  47.5800470  17.5744920
  45.3843910  46.0661840  14.8880600  45.1581490  45.3492280  15.4805240
  44.9940110  45.8174280  14.0502350  44.9660160  43.9833780  16.5494760
  44.6781860  44.4446470  17.3372640  45.7612330  43.5231550  16.8178980
  45.7230020  35.8182550  17.7089940  45.0943180  35.9228220  16.9948170
  45.2281940  36.0379330  18.4983820  40.1688160  47.5388140  15.1423920
  40.2700140  47.3352130  14.2125900  39.2689900  47.2846420  15.3471700
  46.8184430  48.1475190  23.0884360  46.9431850  48.9706360  23.5608170
  47.6849990  47.9365920  22.7408510  37.4004270  49.4136710  14.5827060
  38.1932880  49.7025540  14.1308850  36.8808620  48.9828880  13.9039540
  46.4534440  48.6406840  16.0063800  46.1675950  48.2271980  15.1917980
  46.2553990  49.5694550  15.8864320  35.7218420  38.7284300  13.8934860
  35.5207480  37.8651660  14.2548200  35.5510470  38.6417660  12.9556460
  43.2006730  33.5392530  16.4221740  43.4809020  32.6960430  16.7781160
  42.4272460  33.7715640  16.9360490  34.5201220  35.8284920  13.8812740
  34.8227120  35.8352350  12.9731890  35.2595810  35.4782780  14.3780400
  37.7386150  34.7719540  14.8668940  37.3908150  34.0943530  14.2871390
  37.9398920  34.3109050  15.6812330  39.9035190  49.7600290  16.4855540
  40.7985980  50.0985260  16.5074300  39.9352820  49.0379700  15.8579820
  48.1230990  46.0321780  14.5291450  47.2923950  46.0998430  14.9998680
  48.3002820  46.9225900  14.2258310  47.6306620  43.0703630  14.1898170
  47.9055460  43.9782510  14.0617390  47.4417360  43.0066160  15.1260160
  44.0282230  36.0948480  15.4851800  44.4467110  35.9079460  14.6448460
  43.7218290  35.2427530  15.7954730  32.8357080  37.5671660  15.1153020
  33.5448780  37.1454880  14.6300300  32.1197020  37.6346890  14.4836370
  32.4831240  33.6210990  14.1555670  33.2059370  34.1619930  14.4736890
  32.7555760  33.3474410  13.2797210  48.6100320  34.9572330  14.1971070
  49.5349630  34.8253510  13.9889360  48.5876110  35.0365150  15.1507520
  48.6838810  35.7282990  16.8227780  47.8890310  35.6628110  17.3520690
  48.8882090  36.6633630  16.8113130  45.6257230  49.7674540  20.8166170
  46.2216300  49.4459110  20.1400590  45.8835380  49.2946360  21.6079440
  48.4929990  49.7746420  27.3677160  47.9988270  50.1715290  26.6504290
  47.8843280  49.1495630  27.7614440  46.1769440  50.4169840  24.6463900
  45.7172410  51.1685650  24.2721920  45.5481900  49.6976310  24.5878700
  46.0951470  32.8407530  17.2516900  46.2902100  33.7390980  17.5184330
  45.3081340  32.6094610  17.7449850  34.2803230  34.1868300  16.2893210
  34.8095990  33.3998100  16.1601160  34.9131550  34.8659490  16.5228740
  47.6478080  50.0808240  19.0123460  47.8230270  49.3945980  18.3684380
  46.9499650  50.6055290  18.6200130  42.1070240  40.6373470   2.7206300
  42.0264290  39.7228080   2.4498010  41.6934660  41.1340540   2.0146010
  40.2388280  42.4152490   4.6015570  39.4630380  41.9352930   4.8914140
  40.8901210  41.7358140   4.4271730  34.2554110  42.7272300   5.4791330
  33.4238990  42.4721010   5.8787840  34.8635090  42.7983070   6.2149250
  44.2595710  46.8212680   3.3814700  43.7977240  46.0499920   3.7101870
  45.0721260  46.8478750   3.8867150  34.2355370  46.7612390   5.6749350
  34.5383410  45.8710130   5.4959570  34.9798960  47.3182610   5.4471600
  30.6279070  40.2879840   5.1473420  31.1995180  39.5202040   5.1477060
  30.6280610  40.5868600   4.2380030  40.4859020  49.1070690   3.0018690
  39.8670460  49.5628190   2.4313130  41.3410800  49.2622150   2.6008390
  39.6797270  45.0909680   4.6085730  39.6105550  44.1499620   4.4474860
  40.4417130  45.1811090   5.1808300  31.8703940  35.6964200   6.9342350
  31.6906780  34.7989950   7.2145110  31.4684020  36.2436070   7.6089300
  40.7102440  37.8980060   4.8354660  41.0867260  37.0251940   4.7228330
  40.6121950  38.2338760   3.9445100  44.4926560  35.3930500   1.7683000
  45.3136180  34.9027070   1.8108480  44.5260640  35.9828160   2.5214840
  32.4890610  38.1924700   5.5424690  33.1700720  38.4563070   6.1612090
  32.1738660  37.3525570   5.8762700  36.6815180  39.2392060   4.6297280
  37.1893400  39.7373030   5.2702300  37.2128420  38.4627260   4.4536640
  48.7826110  37.4097250   8.3326630  48.0778280  37.7978960   7.8141740
  49.0484030  38.1047540   8.9347560  34.9651280  33.8790620   8.8960700
  34.9669720  34.3963010   8.0906600  34.1355590  33.4020800   8.8730630
  36.2154130  43.5185800   7.0734200  35.8823510  44.1454720   7.7155270
  36.3920810  44.0447680   6.2935870  44.7288040  37.3330880   4.5410540
  44.0243610  37.6215770   5.1213650  45.0900200  38.1430990   4.1810100
  34.6466610  35.5900580   6.9031150  34.9883420  36.4342630   6.6085020
  33.7082420  35.7384320   7.0196490  35.4273230  45.4866600   8.8883380
  36.0447230  46.1617680   8.6067830  34.5666350  45.8954580   8.7970880
  46.3450820  46.9506010   6.8038020  45.6614340  47.6205120   6.7954690
  46.8845110  47.1486660   6.0382880  47.7974960  36.7785670   4.9319750
  46.8499870  36.8124650   5.0635180  48.1224950  37.5924620   5.3169110
  38.3294500  33.0782850   3.2275740  38.6369480  32.5229740   2.5111240
  37.3995200  33.2127310   3.0448730  43.8809560  48.7950140   5.5183200
  43.8936720  48.3912430   4.6505460  43.3284780  49.5697430   5.4144630
  43.2795000  43.6979980   6.8465810  43.6963790  43.4840090   6.0119270
  44.0034820  43.9552770   7.4174430  47.2257100  42.0967200   6.9382050
  46.3975730  42.1660290   6.4632180  47.8207580  42.6821510   6.4697880
  44.1899110  38.8836520   7.8836920  43.7770290  39.7090230   8.1376910
  43.4575060  38.2981560   7.6913280  36.3231900  41.6696420   2.7455590
  35.9188900  40.9573670   2.2501490  36.4095020  41.3249660   3.6343630
  36.7913600  45.3563980   4.9094800  36.4941890  44.7509450   4.2302580
  37.7413420  45.3941290   4.7984160  35.0360520  38.4439630   6.5254630
  35.5875110  38.5534970   5.7507880  35.5504030  38.8177230   7.2409860
  44.8799210  48.9295850   8.5717900  44.4029770  49.7368040   8.3790510
  44.1961000  48.2774180   8.7244110  35.8832030  45.0945670  11.5602600
  34.9860560  45.3185640  11.8076000  35.9084900  45.2180610  10.6114000
  34.7103250  41.9658990  10.1359970  34.5711020  42.8381790  10.5047370
  33.8284610  41.6231800   9.9907910  36.5083600  47.9080690  12.3445120
  36.4799030  48.3123640  11.4773550  36.3448570  46.9791050  12.1816720
  48.4598420  48.6907790  13.6409290  48.9358140  49.1690680  14.3198370
  49.0805580  48.6225280  12.9154790  30.6621900  43.7356540   6.0530880
  30.7402320  43.8705310   5.1086600  31.2763580  43.0272430   6.2459000
  47.8631670  45.8820640  10.8009300  47.9894730  45.6432520   9.8826480
  47.9053050  45.0505180  11.2731380  41.7248410  49.5848640   9.3704110
  42.2393080  49.4956650  10.1726540  40.8817490  49.9308340   9.6632020
  47.7155680  37.9353100  11.7659040  47.0999950  38.4432770  11.2374500
  47.3952100  37.0351430  11.7084980  30.7181420  44.7770710   8.5925340
  30.8812460  44.3076070   7.7744710  31.1833870  44.2694270   9.2574180
  35.4900190  33.9076470   3.6285910  35.0468340  34.6886010   3.2970430
  36.0485180  34.2306360   4.3356850  39.7770000  36.7744990   9.2321230
  39.3149370  36.9828010  10.0441170  39.3748110  35.9604340   8.9291900
  44.7774510  37.9953940  10.3617890  43.9268100  37.6959690  10.6826960
  44.6176300  38.2395950   9.4501710  41.8724220  39.4955690  12.4616680
  42.1977630  38.6619440  12.1218910  42.6604550  40.0184210  12.6095010
  37.5276090  34.4523800   5.4875510  37.8248420  35.3586630   5.4067530
  38.0761650  33.9642580   4.8735080  32.8524160  36.3409290  10.1761210
  32.4587550  37.1884500  10.3833990  32.1642560  35.7035660  10.3669850
  39.4269210  36.4244260  13.2457950  38.7367530  36.2316460  13.8804040
  40.1701510  36.7078900  13.7782250  30.1541210  34.2637750   4.2091290
  29.8654260  34.8340610   4.9216270  30.8986970  33.7842200   4.5722520
  41.7032180  40.2642700   6.0811870  40.9713300  40.7729510   6.4301970
  41.3056520  39.4472680   5.7800650  38.1409570  36.9396900   4.4864360
  38.1445630  36.4986850   3.6368900  39.0360690  37.2614230   4.5936180
  33.9911950  36.8223390   3.4458570  33.6512000  37.2998620   4.2025620
  33.2289270  36.3688510   3.0859670  42.1658090  35.7176380   5.4934810
  42.1830830  36.1685030   6.3376660  41.9173670  34.8182020   5.7068250
  45.5928840  33.1308560  11.3321190  45.9174610  32.3998220  11.8579170
  45.6285350  32.8122200  10.4302180  32.2920400  44.1522140  10.7521150
  31.9075190  43.5115810  11.3504110  32.6032590  44.8558260  11.3215880
  38.4417540  40.9998680   6.2329770  38.8087670  40.5257250   6.9791110
  38.2522600  41.8740250   6.5738110  31.3058030  35.7442370   2.3623240
  31.0204950  35.3798040   3.2001860  31.2436890  35.0122830   1.7486380
  36.2316910  40.0407320   8.5513980  35.9273980  40.9199300   8.7764340
  37.1863370  40.1007110   8.5871420  45.5186680  43.2433670   4.9407220
  46.2385800  43.7388960   4.5503330  45.3168500  42.5651560   4.2961090
  40.9005480  43.3142730  10.8276220  40.8342790  42.3938400  10.5733810
  40.2710620  43.4118170  11.5420860  34.8036100  43.9148690   2.7859640
  35.3214770  43.1116950   2.7316530  34.3520120  43.8527830   3.6276470
  32.2880640  40.8810060   9.6985340  31.9295580  41.5463910  10.2858680
  31.9935200  40.0493610  10.0697960  40.8322210  46.1363300  10.5780020
  40.8466750  45.2044260  10.3598930  40.1247310  46.2223060  11.2169790
  47.0433420  42.7770640   9.9248600  46.3181610  43.3699420   9.7277990
  47.5708880  42.7694180   9.1261970  42.5733010  44.5030810   3.4232450
  42.9256830  43.9058940   2.7633820  41.6895340  44.1775040   3.5940700
  40.2656110  47.7780870   7.6720520  40.9098330  47.9840250   8.3493940
  40.6285550  47.0169270   7.2191370  41.5388190  45.7813220   6.3897970
  42.1810420  45.0806380   6.5030140  42.0637540  46.5611660   6.2094860
  43.3125810  46.5808120   9.5934030  43.6482050  47.1674810  10.2711950
  42.3926150  46.4500830   9.8231820  30.8629210  34.3703300  10.3757440
  30.1487730  34.5700220  10.9810050  31.2824250  33.5942870  10.7472240
  31.1501800  48.3583560  11.3623970  31.2592920  47.4178300  11.2219360
  30.4982360  48.6238310  10.7137700  39.1414390  46.6299450  12.7622090
  38.8211260  45.9108690  13.3067780  38.4672750  47.3054520  12.8358150
  42.3567990  36.8625610   8.1258890  42.7248810  36.0420820   8.4538460
  41.4966190  36.9227500   8.5414540  39.3169980  39.5165200   8.3496860
  39.8155230  39.9911020   9.0148710  39.4592930  38.5928720   8.5566890
  46.5236840  35.7333160   9.1925250  46.0210440  36.4738560   9.5319060
  47.3393500  36.1217160   8.8762040  44.8158850  40.9766340   2.6386610
  43.8748990  40.9916570   2.8134300  45.1302920  40.1902300   3.0846910
  46.8184430  48.1475190   4.3140870  46.9431850  48.9706360   4.7864680
  47.6849990  47.9365920   3.9665020  34.2901960  50.2406400   3.9858000
  35.0264440  49.6921860   4.2566570  34.6742880  51.1062410   3.8463990
  33.2960240  49.4252470  13.1743580  34.0972970  49.7464520  13.5878980
  32.7812060  49.0648050  13.8963490  42.1324870  45.5332340  13.1218990
  41.5263030  45.5563940  12.3814740  41.8278980  44.8015380  13.6586240
  43.5625240  49.2612630  11.7328400  44.5146990  49.1770650  11.6828640
  43.4153460  49.9254340  12.4062190  45.2119340  45.0502250  12.2090170
  45.9528810  45.3878010  11.7057630  44.4492020  45.2194310  11.6559940
  33.0481130  40.0555520  13.0129700  33.0886470  39.7569390  13.9214930
  33.9026630  40.4563130  12.8537220  34.9886940  38.6347620  10.9804190
  34.4583400  38.1438570  10.3527530  35.6575010  39.0631820  10.4462120
  43.8865000  43.1017080  10.7445380  44.3006020  43.2562160  11.5935800
  42.9516000  43.2272300  10.9071160  44.3587170  40.4413240  12.7484530
  44.9407940  39.6865560  12.6605010  44.5348940  40.9720680  11.9716010
  35.4759240  35.6009990  11.0601480  35.3816110  34.9830740  10.3352350
  34.8956630  36.3276280  10.8331390  38.2420680  34.1583230   8.0928870
  37.7937980  34.1807490   7.2474420  37.6085880  33.7602250   8.6899170
  38.6480230  43.0537560   8.7141310  39.0668340  43.8970290   8.5417550
  37.7288860  43.1909600   8.4848090  40.9844130  40.7853740  10.0979150
  41.1040340  40.1894880  10.8373990  41.8438130  40.8223430   9.6780450
  43.3232030  41.3390930   8.6741660  42.7967250  41.8633550   8.0706800
  43.6663370  41.9718320   9.3051390  36.4987650  49.3590570   9.8299040
  35.9608740  50.0836630   9.5107740  36.7521610  48.8820910   9.0396380
  37.7512900  37.3275090  11.3554970  38.3412590  37.0190940  12.0432790
  36.9333140  36.8554840  11.5114870  42.5706330  36.9440900  11.5887990
  41.8821850  36.2822440  11.5237980  43.2912350  36.4979170  12.0336450
  39.3549860  50.5941780  10.0885690  39.2808560  51.4976920  10.3958060
  38.4528700  50.2753680  10.0607760  30.7577150  47.9216370   3.3919310
  31.0880160  47.0537430   3.1597950  31.1868150  48.1274890   4.2224270
  31.2467360  48.7886960   6.1300940  30.8098350  48.9687760   6.9625090
  31.8145040  49.5461580   5.9882660  46.8829540  48.2903960  10.4178250
  46.2831530  48.3496520   9.6742170  47.0123440  47.3508940  10.5475100
  31.0791790  41.3007190   2.4889820  30.4240630  41.0318830   1.8449520
  31.9169740  41.1911670   2.0391800  48.5847420  43.6319360   3.1024090
  48.9556250  42.8486680   2.6960060  49.2249350  44.3208460   2.9241390
  45.5681180  45.0155940   8.5154410  44.7541020  45.4453100   8.7780200
  45.9755380  45.6274350   7.9023460  32.1167720  41.6859760   7.0293160
  32.4840760  41.5987160   7.9089180  31.5478540  40.9226310   6.9300020
  46.9171580  40.1544140  10.0423630  46.6857670  39.9256890   9.1421580
  47.1776130  41.0743690   9.9968520  31.6683720  38.5968850  10.9351580
  30.7739770  38.5635610  11.2745290  32.2081270  38.7955640  11.7002830
  45.3559650  35.3800570  12.8203330  46.2329830  35.3883970  13.2037330
  45.3680490  34.6431410  12.2095680  46.8022920  39.2330110   3.7091350
  47.3260400  38.7392760   3.0781520  47.3882340  39.3680470   4.4538920
  46.9812640  39.3169980   7.2310900  46.0315350  39.2833520   7.3455890
  47.1625650  40.2270090   6.9960670  32.1723430  32.8717180   5.2834800
  32.8199620  32.3214560   4.8429960  32.5925270  33.1260330   6.1050610
  47.7210050  37.1264410   2.1821440  47.6109330  36.9720450   3.1203710
  48.4817640  36.5985350   1.9396850  46.0675770  33.0658540   8.6404440
  46.7047990  33.6792680   9.0063630  46.2150660  33.1019200   7.6953670
  31.9255430  33.0272850   8.0260120  31.5770250  33.4836670   8.7918300
  31.5943130  32.1329980   8.1082550  33.5319800  46.1992450  12.1913310
  33.4889430  45.8285360  13.0727770  33.6630810  47.1370020  12.3315130
  37.2325830  47.7552040   7.7923030  36.9917190  48.0226600   6.9053550
  38.1728470  47.9257770   7.8473890  39.4380250  34.2184730  11.5479540
  39.3769140  34.8106560  12.2974950  40.3780630  34.1110690  11.4029800
  42.0754810  33.8754790  11.1871830  42.6895220  34.1934080  10.5252910
  42.6204370  33.3903380  11.8067690  48.4929990  49.7746420   8.5933670
  47.9988270  50.1715290   7.8760800  47.8843280  49.1495630   8.9870950
  32.5976070  32.5549050  11.3010890  33.1459060  32.3737100  10.5377000
  32.6631380  31.7643160  11.8367200  33.3707830  49.1454700   9.3111090
  32.7768150  49.0139400  10.0501130  33.3631670  48.3092840   8.8453190
  42.8162850  32.4386930   7.5141120  41.9422690  32.7722040   7.3114050
  42.7073600  31.9660110   8.3392990  43.7234830  34.6457800   8.8982840
  43.3948190  33.8309560   8.5184570  44.6717130  34.6027610   8.7748530
  46.1769440  50.4169840   5.8720410  45.7172410  51.1685650   5.4978430
  45.5481900  49.6976310   5.8135210  33.0020060  46.5113080   8.2619130
  32.2754120  45.8918370   8.1945080  33.0629210  46.9053690   7.3917210
  36.6065160  48.7258080   5.0468540  37.1230180  48.1145440   4.5216800
  37.2562540  49.2286860   5.5379550  39.3460660  49.6166570   5.8737520
  39.6338470  49.3620870   4.9970530  39.8583880  49.0643930   6.4643090
  40.5637670  33.3556770   6.4534030  39.7809460  33.8302270   6.7330790
  40.2700600  32.4511600   6.3447210  45.1158740  34.0579870   4.4983120
  45.5566830  34.0024970   3.6504720  44.8466330  34.9737880   4.5693300
  46.9797310  33.6895110   2.5091940  46.9185710  32.7456330   2.3622960
  47.7589340  33.7975200   3.0545400  42.9516870  32.4385970   3.2033130
  43.5546240  33.0106180   3.6781650  42.2109860  33.0025410   2.9807030
  39.4133020  50.5382670  13.2405720  40.3400330  50.3026940  13.2841680
  39.3983450  51.3654670  12.7591750  36.5996630  33.2027420  13.0047600
  36.3180900  33.7061020  12.2408420  36.9816330  32.4049170  12.6389730
  43.2012090  32.6181000  13.5828070  43.0877540  32.9375610  14.4779590
  44.0181830  33.0193510  13.2865350  45.9810580  49.7652530  13.0646760
  46.7735900  49.2701760  12.8572720  46.2743730  50.4442670  13.6722370
  42.1070240  21.8629980  77.8180260  42.0264290  20.9484590  77.5471970
  41.6934660  22.3597050  77.1119970  40.2388280  23.6409000  79.6989530
  39.4630380  23.1609440  79.9888100  40.8901210  22.9614650  79.5245690
  34.2554110  23.9528810  80.5765290  33.4238990  23.6977520  80.9761800
  34.8635090  24.0239580  81.3123210  44.2595710  28.0469190  78.4788660
  43.7977240  27.2756430  78.8075830  45.0721260  28.0735260  78.9841110
  34.2355370  27.9868900  80.7723310  34.5383410  27.0966640  80.5933530
  34.9798960  28.5439120  80.5445560  32.6646060  18.9130700  74.3607680
  31.7762760  19.2546670  74.2587560  32.9487250  18.7131020  73.4688510
  30.6279070  21.5136350  80.2447380  31.1995180  20.7458550  80.2451020
  30.6280610  21.8125110  79.3353990  40.4859020  30.3327200  78.0992650
  39.8670460  30.7884700  77.5287090  41.3410800  30.4878660  77.6982350
  39.6797270  26.3166190  79.7059690  39.6105550  25.3756130  79.5448820
  40.4417130  26.4067600  80.2782260  40.7102440  19.1236570  79.9328620
  41.0867260  18.2508450  79.8202290  40.6121950  19.4595270  79.0419060
  34.8407450  17.4962200  75.3946060  34.9474200  18.3965930  75.7014820
  33.9299810  17.4480170  75.1040710  44.4926560  16.6187010  76.8656960
  45.3136180  16.1283580  76.9082440  44.5260640  17.2084670  77.6188800
  32.4890610  19.4181210  80.6398650  33.1700720  19.6819580  81.2586050
  32.1738660  18.5782080  80.9736660  36.6815180  20.4648570  79.7271240
  37.1893400  20.9629540  80.3676260  37.2128420  19.6883770  79.5510600
  41.3522370  25.2166440  75.4924560  40.7339640  25.6815890  74.9287280
  41.8645620  25.9093920  75.9094070  44.7288040  18.5587390  79.6384500
  44.0243610  18.8472280  80.2187610  45.0900200  19.3687500  79.2784060
  30.7205570  25.9022970  72.8664190  30.3433550  26.3910070  72.1349090
  30.9778640  26.5748250  73.4970720  46.3450820  28.1762520  81.9011980
  45.6614340  28.8461630  81.8928650  46.8845110  28.3743170  81.1356840
  47.7974960  18.0042180  80.0293710  46.8499870  18.0381160  80.1609140
  48.1224950  18.8181130  80.4143070  38.3294500  14.3039360  78.3249700
  38.6369480  13.7486250  77.6085200  37.3995200  14.4383820  78.1422690
  43.8809560  30.0206650  80.6157160  43.8936720  29.6168940  79.7479420
  43.3284780  30.7953940  80.5118590  45.1754980  26.7422870  75.7047330
  45.0651310  25.7997200  75.8296750  45.1723230  27.1038510  76.5910090
  40.7175260  22.3688190  75.0609820  39.7904540  22.3025570  75.2898290
  40.8700080  23.3068320  74.9465060  40.7044340  18.6405190  72.0576980
  39.7648010  18.8019150  72.1429440  41.0227600  19.3590870  71.5112970
  47.2257100  23.3223710  82.0356010  46.3975730  23.3916800  81.5606140
  47.8207580  23.9078020  81.5671840  44.7472550  23.9308490  75.5645070
  44.1284970  23.5928040  74.9171370  44.7297000  23.2868250  76.2724260
  36.3231900  22.8952930  77.8429550  35.9188900  22.1830180  77.3475450
  36.4095020  22.5506170  78.7317590  36.7913600  26.5820490  80.0068760
  36.4941890  25.9765960  79.3276540  37.7413420  26.6197800  79.8958120
  42.9237250  23.1695300  72.5717820  43.3630530  22.3317730  72.4255640
  43.6365670  23.8024700  72.6581960  41.0332630  28.1091370  76.5399060
  41.4728540  28.8515700  76.1254450  40.9719520  28.3517940  77.4638020
  46.5054390  14.4238110  70.8858860  46.1927050  14.5164940  71.7857930
  47.2666860  15.0019140  70.8356290  33.0236530  21.7897910  75.3436200
  32.9034130  22.5160000  74.7317470  32.7137420  21.0200820  74.8664110
  30.6621900  24.9613050  81.1504840  30.7402320  25.0961820  80.2060560
  31.2763580  24.2528940  81.3432960  31.9069530  26.6613240  77.5611020
  31.4997610  26.8027830  76.7064620  32.7982540  26.3773400  77.3582230
  43.7002810  31.0960490  73.8962070  43.5403950  30.8063430  74.7943900
  43.5349520  30.3200620  73.3607300  36.1791190  30.8759020  75.6733690
  36.0033670  29.9594560  75.4601490  35.3246930  31.2346310  75.9131490
  43.4028940  28.6048050  72.4560070  42.7094100  28.6025340  71.7962350
  44.1451800  28.1807370  72.0254240  42.9678870  30.2310760  76.5308560
  43.4235820  29.4500140  76.8447180  43.3071390  30.9417580  77.0749740
  35.4900190  15.1332980  78.7259870  35.0468340  15.9142520  78.3944390
  36.0485180  15.4562870  79.4330810  38.6059010  14.7543680  73.6065700
  37.9813190  14.7503550  74.3319010  38.5189130  13.8874640  73.2101670
  37.5276090  15.6780310  80.5849470  37.8248420  16.5843140  80.5041490
  38.0761650  15.1899090  79.9709040  35.2814410  20.2566550  76.4541120
  35.0555330  20.0403720  77.3587740  34.5006940  20.6895010  76.1087090
  42.5112170  20.2629920  75.0531770  41.9121060  20.9865720  74.8695390
  43.0591780  20.2006700  74.2708220  41.1177040  18.8993460  77.0835050
  41.5106610  19.2165660  76.2703740  41.4793890  18.0205340  77.1979570
  30.1541210  15.4894260  79.3065250  29.8654260  16.0597120  80.0190230
  30.8986970  15.0098710  79.6696480  30.3411440  19.4314380  70.5167970
  30.2586110  20.3745140  70.6582960  29.9894500  19.2889290  69.6380320
  41.7032180  21.4899210  81.1785830  40.9713300  21.9986020  81.5275930
  41.3056520  20.6729190  80.8774610  38.1409570  18.1653410  79.5838320
  38.1445630  17.7243360  78.7342860  39.0360690  18.4870740  79.6910140
  33.9911950  18.0479900  78.5432530  33.6512000  18.5255130  79.2999580
  33.2289270  17.5945020  78.1833630  38.2029720  19.1665490  72.5745080
  38.3242540  19.1251970  73.5230900  37.8178230  20.0289640  72.4191810
  42.1658090  16.9432890  80.5908770  42.1830830  17.3941540  81.4350620
  41.9173670  16.0438530  80.8042210  37.2151220  21.4766630  71.9728380
  36.6468120  21.0284880  71.3464290  37.9240220  21.8359410  71.4393530
  31.3058030  16.9698880  77.4597200  31.0204950  16.6054550  78.2975820
  31.2436890  16.2379340  76.8460340  34.7598700  25.4724820  74.2454790
  33.9860960  24.9322440  74.0853510  35.4893330  24.9531430  73.9072550
  45.5186680  24.4690180  80.0381180  46.2385800  24.9645470  79.6477290
  45.3168500  23.7908070  79.3935050  40.9796620  15.8628140  74.1810570
  40.1661230  15.3641310  74.1055880  40.7858570  16.7026390  73.7646920
  43.6945010  20.2347790  72.4772730  44.5824630  20.5465020  72.3024070
  43.6650100  19.3620040  72.0853310  34.8036100  25.1405200  77.8833600
  35.3214770  24.3373460  77.8290490  34.3520120  25.0784340  78.7250430
  39.6905600  26.4071480  73.1560900  40.0321300  27.1513710  72.6604220
  38.8618310  26.7202600  73.5185730  45.9659280  21.5459630  71.9452590
  45.8823000  21.9773850  71.0949030  46.6853470  22.0057980  72.3779410
  46.9946530  28.4001890  74.6734720  46.3522690  27.7457510  74.9478440
  46.6077190  28.8056980  73.8975390  42.5733010  25.7287320  78.5206410
  42.9256830  25.1315450  77.8607780  41.6895340  25.4031550  78.6914660
  38.6596290  26.4885010  75.9276820  39.3467420  27.0354220  76.3084410
  37.8728710  27.0325740  75.9626430  30.7988690  22.1057830  71.4193900
  31.6683540  22.3882630  71.7029820  30.3079010  22.9193700  71.3042710
  37.9623500  23.4931040  75.5402180  38.4186280  24.3036290  75.7662370
  37.6111710  23.1754180  76.3720670  33.8635280  13.8368690  76.0124700
  33.7349910  13.8286590  76.9609620  33.0397300  14.1751780  75.6615710
  41.5388190  27.0069730  81.4871930  42.1810420  26.3062890  81.6004100
  42.0637540  27.7868170  81.3068820  45.3843910  27.2918350  71.2111070
  45.1581490  26.5748790  71.8035710  44.9940110  27.0430790  70.3732820
  31.1659940  31.3185210  71.9855530  31.5257580  31.9174550  71.3312800
  31.0252280  31.8645100  72.7590560  44.9660160  25.2090290  72.8725230
  44.6781860  25.6702980  73.6603110  45.7612330  24.7488060  73.1409450
  37.1828560  28.7016410  72.8029200  37.1738660  29.4346100  72.1873710
  36.2626920  28.4547990  72.8956160  32.7835200  23.9231300  73.5475960
  32.1763150  24.6630200  73.5571260  33.2584550  24.0130660  72.7214160
  45.7230020  17.0439060  74.0320410  45.0943180  17.1484730  73.3178640
  45.2281940  17.2635840  74.8214290  40.1688160  28.7644650  71.4654390
  40.2700140  28.5608640  70.5356370  39.2689900  28.5102930  71.6702170
  37.6914050  19.3225010  75.4478290  36.9830200  19.7911350  75.8891900
  37.9758530  18.6647020  76.0823480  41.7229480  16.0475670  76.8874080
  41.5997260  16.0661800  75.9383590  42.6714040  16.0954610  77.0072480
  38.8106270  31.2830970  76.1602060  39.0647770  31.2452360  75.2381430
  37.8618750  31.1564300  76.1530310  35.8949070  17.6310090  72.8229000
  36.7439600  18.0680240  72.7569190  35.5280340  17.9430350  73.6501060
  44.8158850  22.2022850  77.7360570  43.8748990  22.2173080  77.9108260
  45.1302920  21.4158810  78.1820870  34.7940490  23.8842450  71.2964530
  35.5603760  23.7723810  71.8589960  34.8715180  23.1880420  70.6441300
  33.4887250  21.3167520  71.9797420  33.5690840  20.3695030  72.0914820
  34.3807000  21.6474400  72.0858080  46.8184430  29.3731700  79.4114830
  46.9431850  30.1962870  79.8838640  47.6849990  29.1622430  79.0638980
  34.2901960  31.4662910  79.0831960  35.0264440  30.9178370  79.3540530
  34.6742880  32.3318920  78.9437950  31.1747440  27.5336480  74.9573470
  30.2487220  27.7757620  74.9478880  31.6403870  28.3610740  74.8358220
  46.4534440  29.8663350  72.3294270  46.1675950  29.4528490  71.5148450
  46.2553990  30.7951060  72.2094790  37.9181670  25.8596630  70.7699880
  37.8132310  25.2448980  71.4961260  37.7505890  25.3362520  69.9862890
  41.1584400  24.9216660  71.3741870  40.6094500  25.3685960  72.0184610
  41.7803660  24.4165910  71.8979540  36.8259520  23.8807580  73.2707170
  37.2475940  23.7147450  74.1138560  36.9510360  23.0707810  72.7762310
  39.3387160  22.9045190  70.5184270  39.8592820  22.1894210  70.1525420
  39.9855560  23.5431060  70.8184780  35.7218420  19.9540810  70.2165330
  35.5207480  19.0908170  70.5778670  35.5510470  19.8674170  69.2786930
  43.2006730  14.7649040  72.7452210  43.4809020  13.9216940  73.1011630
  42.4272460  14.9972150  73.2590960  34.5201220  17.0541430  70.2043210
  34.8227120  17.0608860  69.2962360  35.2595810  16.7039290  70.7010870
  37.7386150  15.9976050  71.1899410  37.3908150  15.3200040  70.6101860
  37.9398920  15.5365560  72.0042800  39.9035190  30.9856800  72.8086010
  40.7985980  31.3241770  72.8304770  39.9352820  30.2636210  72.1810290
  33.5431350  26.3583850  71.0373010  33.9806220  26.9013520  71.6930590
  34.0279080  25.5330800  71.0469350  30.7577150  29.1472880  78.4893270
  31.0880160  28.2793940  78.2571910  31.1868150  29.3531400  79.3198230
  35.3539070  27.4781890  76.1495240  35.0534610  27.3546860  77.0499150
  35.2476560  26.6190480  75.7410970  48.1230990  27.2578290  70.8521920
  47.2923950  27.3254940  71.3229150  48.3002820  28.1482410  70.5488780
  47.5787450  24.0025770  73.3556120  48.3406360  24.5722420  73.4615810
  47.5941820  23.4352970  74.1264430  31.0791790  22.5263700  77.5863780
  30.4240630  22.2575340  76.9423480  31.9169740  22.4168180  77.1365760
  48.5847420  24.8575870  78.1998050  48.9556250  24.0743190  77.7934020
  49.2249350  25.5464970  78.0215350  47.6306620  24.2960140  70.5128640
  47.9055460  25.2039020  70.3847860  47.4417360  24.2322670  71.4490630
  44.0282230  17.3204990  71.8082270  44.4467110  17.1335970  70.9678930
  43.7218290  16.4684040  72.1185200  47.5271960  22.2329130  75.5058070
  47.1515560  21.4657060  75.0739360  46.7975080  22.6151830  75.9933000
  30.2929870  19.7362630  73.5289110  29.3893950  19.9992830  73.3540770
  30.7770490  20.0073800  72.7489070  46.8022920  20.4586620  78.8065310
  47.3260400  19.9649270  78.1755480  47.3882340  20.5936980  79.5512880
  32.8357080  18.7928170  71.4383490  33.5448780  18.3711390  70.9530770
  32.1197020  18.8603400  70.8066840  32.4831240  14.8467500  70.4786140
  33.2059370  15.3876440  70.7967360  32.7555760  14.5730920  69.6027680
  46.2922890  19.7159970  74.7457720  46.7882010  19.4830840  75.5306600
  46.0938960  18.8771810  74.3295360  32.1723430  14.0973690  80.3808760
  32.8199620  13.5471070  79.9403920  32.5925270  14.3516840  81.2024570
  47.7210050  18.3520920  77.2795400  47.6109330  18.1976960  78.2177670
  48.4817640  17.8241860  77.0370810  48.6100320  16.1828840  70.5201540
  49.5349630  16.0510020  70.3119830  48.5876110  16.2621660  71.4737990
  48.6838810  16.9539500  73.1458250  47.8890310  16.8884620  73.6751160
  48.8882090  17.8890140  73.1343600  45.6257230  30.9931050  77.1396640
  46.2216300  30.6715620  76.4631060  45.8835380  30.5202870  77.9309910
  46.1769440  31.6426350  80.9694370  45.7172410  32.3942160  80.5952390
  45.5481900  30.9232820  80.9109170  36.6065160  29.9514590  80.1442500
  37.1230180  29.3401950  79.6190760  37.2562540  30.4543370  80.6353510
  39.3460660  30.8423080  80.9711480  39.6338470  30.5877380  80.0944490
  39.8583880  30.2900440  81.5617050  40.5637670  14.5813280  81.5507990
  39.7809460  15.0558780  81.8304750  40.2700600  13.6768110  81.4421170
  45.1158740  15.2836380  79.5957080  45.5566830  15.2281480  78.7478680
  44.8466330  16.1994390  79.6667260  46.9797310  14.9151620  77.6065900
  46.9185710  13.9712840  77.4596920  47.7589340  15.0231710  78.1519360
  31.2850060  31.0543980  76.5689850  31.1172100  30.4214660  77.2671740
  30.4184570  31.2603380  76.2184040  31.9078080  14.8860760  74.0721710
  32.6657440  14.9989640  73.4985740  31.4455250  15.7229960  74.0265140
  38.4491890  17.0000030  77.0624020  37.6366400  16.6256920  76.7219900
  38.9533530  16.2445110  77.3645210  42.9516870  13.6642480  78.3007090
  43.5546240  14.2362690  78.7755610  42.2109860  14.2281920  78.0780990
  46.0951470  14.0664040  73.5747370  46.2902100  14.9647490  73.8414800
  45.3081340  13.8351120  74.0680320  32.8912760  29.7477210  74.0139990
  32.3660380  30.1285240  73.3101950  32.8157340  30.3727980  74.7349700
  34.2803230  15.4124810  72.6123680  34.8095990  14.6254610  72.4831630
  34.9131550  16.0916000  72.8459210  36.4741070  15.1499950  75.6669070
  35.8443810  14.4487260  75.8339200  35.9346210  15.9104080  75.4502230
  47.6478080  31.3064750  75.3353930  47.8230270  30.6202490  74.6914850
  46.9499650  31.8311800  74.9430600  35.4905730  31.6959590  72.8889240
  36.2224550  31.4118870  72.3413130  35.7499400  31.4572870  73.7788620
  34.6520520  27.8124320  72.8935570  34.0229400  28.2809420  73.4421400
  34.7668350  26.9673540  73.3281760  32.6646060  18.9130700  55.5864190
  31.7762760  19.2546670  55.4844070  32.9487250  18.7131020  54.6945020
  30.6279070  21.5136350  61.4703890  31.1995180  20.7458550  61.4707530
  30.6280610  21.8125110  60.5610500  31.8703940  16.9220710  63.2572820
  31.6906780  16.0246460  63.5375580  31.4684020  17.4692580  63.9319770
  34.8407450  17.4962200  56.6202570  34.9474200  18.3965930  56.9271330
  33.9299810  17.4480170  56.3297220  32.4890610  19.4181210  61.8655160
  33.1700720  19.6819580  62.4842560  32.1738660  18.5782080  62.1993170
  34.9651280  15.1047130  65.2191170  34.9669720  15.6219520  64.4137070
  34.1355590  14.6277310  65.1961100  34.6466610  16.8157090  63.2261620
  34.9883420  17.6599140  62.9315490  33.7082420  16.9640830  63.3426960
  35.4273230  26.7123110  65.2113850  36.0447230  27.3874190  64.9298300
  34.5666350  27.1211090  65.1201350  47.7974960  18.0042180  61.2550220
  46.8499870  18.0381160  61.3865650  48.1224950  18.8181130  61.6399580
  38.3294500  14.3039360  59.5506210  38.6369480  13.7486250  58.8341710
  37.3995200  14.4383820  59.3679200  35.0360520  19.6696140  62.8485100
  35.5875110  19.7791480  62.0738350  35.5504030  20.0433740  63.5640330
  35.8832030  26.3202180  67.8833070  34.9860560  26.5442150  68.1306470
  35.9084900  26.4437120  66.9344470  34.7103250  23.1915500  66.4590440
  34.5711020  24.0638300  66.8277840  33.8284610  22.8488310  66.3138380
  46.5054390  14.4238110  52.1115370  46.1927050  14.5164940  53.0114440
  47.2666860  15.0019140  52.0612800  30.6621900  24.9613050  62.3761350
  30.7402320  25.0961820  61.4317070  31.2763580  24.2528940  62.5689470
  47.7155680  19.1609610  68.0889510  47.0999950  19.6689280  67.5604970
  47.3952100  18.2607940  68.0315450  30.7181420  26.0027220  64.9155810
  30.8812460  25.5332580  64.0975180  31.1833870  25.4950780  65.5804650
  35.4900190  15.1332980  59.9516380  35.0468340  15.9142520  59.6200900
  36.0485180  15.4562870  60.6587320  39.7770000  18.0001500  65.5551700
  39.3149370  18.2084520  66.3671640  39.3748110  17.1860850  65.2522370
  41.8724220  20.7212200  68.7847150  42.1977630  19.8875950  68.4449380
  42.6604550  21.2440720  68.9325480  38.6059010  14.7543680  54.8322210
  37.9813190  14.7503550  55.5575520  38.5189130  13.8874640  54.4358180
  37.5276090  15.6780310  61.8105980  37.8248420  16.5843140  61.7298000
  38.0761650  15.1899090  61.1965550  37.7213620  21.1552130  68.3457900
  37.6257220  20.2146860  68.1958300  38.5645600  21.3767200  67.9505970
  32.8524160  17.5665800  66.4991680  32.4587550  18.4141010  66.7064460
  32.1642560  16.9292170  66.6900320  39.4269210  17.6500770  69.5688420
  38.7367530  17.4572970  70.2034510  40.1701510  17.9335410  70.1012720
  30.1541210  15.4894260  60.5321760  29.8654260  16.0597120  61.2446740
  30.8986970  15.0098710  60.8952990  30.3411440  19.4314380  51.7424480
  30.2586110  20.3745140  51.8839470  29.9894500  19.2889290  50.8636830
  33.9911950  18.0479900  59.7689040  33.6512000  18.5255130  60.5256090
  33.2289270  17.5945020  59.4090140  42.1658090  16.9432890  61.8165280
  42.1830830  17.3941540  62.6607130  41.9173670  16.0438530  62.0298720
  45.5928840  14.3565070  67.6551660  45.9174610  13.6254730  68.1809640
  45.6285350  14.0378710  66.7532650  32.2920400  25.3778650  67.0751620
  31.9075190  24.7372320  67.6734580  32.6032590  26.0814770  67.6446350
  31.3058030  16.9698880  58.6853710  31.0204950  16.6054550  59.5232330
  31.2436890  16.2379340  58.0716850  36.2316910  21.2663830  64.8744450
  35.9273980  22.1455810  65.0994810  37.1863370  21.3263620  64.9101890
  40.9796620  15.8628140  55.4067080  40.1661230  15.3641310  55.3312390
  40.7858570  16.7026390  54.9903430  40.9005480  24.5399240  67.1506690
  40.8342790  23.6194910  66.8964280  40.2710620  24.6374680  67.8651330
  32.2880640  22.1066570  66.0215810  31.9295580  22.7720420  66.6089150
  31.9935200  21.2750120  66.3928430  35.4893760  22.5650810  68.9055360
  35.1893900  22.7107990  68.0083180  36.2605000  22.0056100  68.8128750
  40.8322210  27.3619810  66.9010490  40.8466750  26.4300770  66.6829400
  40.1247310  27.4479570  67.5400260  30.7988690  22.1057830  52.6450410
  31.6683540  22.3882630  52.9286330  30.3079010  22.9193700  52.5299220
  33.8635280  13.8368690  57.2381210  33.7349910  13.8286590  58.1866130
  33.0397300  14.1751780  56.8872220  30.8629210  15.5959810  66.6987910
  30.1487730  15.7956730  67.3040520  31.2824250  14.8199380  67.0702710
  31.1501800  29.5840070  67.6854440  31.2592920  28.6434810  67.5449830
  30.4982360  29.8494820  67.0368170  39.1414390  27.8555960  69.0852560
  38.8211260  27.1365200  69.6298250  38.4672750  28.5311030  69.1588620
  39.3169980  20.7421710  64.6727330  39.8155230  21.2167530  65.3379180
  39.4592930  19.8185230  64.8797360  41.7229480  16.0475670  58.1130590
  41.5997260  16.0661800  57.1640100  42.6714040  16.0954610  58.2328990
  46.5236840  16.9589670  65.5155720  46.0210440  17.6995070  65.8549530
  47.3393500  17.3473670  65.1992510  33.2960240  30.6508980  69.4974050
  34.0972970  30.9721030  69.9109450  32.7812060  30.2904560  70.2193960
  42.1324870  26.7588850  69.4449460  41.5263030  26.7820450  68.7045210
  41.8278980  26.0271890  69.9816710  31.0158050  23.1382440  68.4410100
  31.5197070  22.5589720  69.0126330  30.2765470  23.4222670  68.9786470
  38.0695990  24.5453430  67.9745620  37.3041660  25.1138430  67.8900290
  38.2511950  24.2529640  67.0813850  33.0481130  21.2812030  69.3360170
  33.0886470  20.9825900  70.2445400  33.9026630  21.6819640  69.1767690
  34.9886940  19.8604130  67.3034660  34.4583400  19.3695080  66.6758000
  35.6575010  20.2888330  66.7692590  44.3587170  21.6669750  69.0715000
  44.9407940  20.9122070  68.9835480  44.5348940  22.1977190  68.2946480
  35.4759240  16.8266500  67.3831950  35.3816110  16.2087250  66.6582820
  34.8956630  17.5532790  67.1561860  38.2420680  15.3839740  64.4159340
  37.7937980  15.4064000  63.5704890  37.6085880  14.9858760  65.0129640
  38.6480230  24.2794070  65.0371780  39.0668340  25.1226800  64.8648020
  37.7288860  24.4166110  64.8078560  37.7512900  18.5531600  67.6785440
  38.3412590  18.2447450  68.3663260  36.9333140  18.0811350  67.8345340
  42.5706330  18.1697410  67.9118460  41.8821850  17.5078950  67.8468450
  43.2912350  17.7235680  68.3566920  43.2006730  14.7649040  53.9708720
  43.4809020  13.9216940  54.3268140  42.4272460  14.9972150  54.4847470
  31.2467360  30.0143470  62.4531410  30.8098350  30.1944270  63.2855560
  31.8145040  30.7718090  62.3113130  32.1167720  22.9116270  63.3523630
  32.4840760  22.8243670  64.2319650  31.5478540  22.1482820  63.2530490
  31.6683720  19.8225360  67.2582050  30.7739770  19.7892120  67.5975760
  32.2081270  20.0212150  68.0233300  45.3559650  16.6057080  69.1433800
  46.2329830  16.6140480  69.5267800  45.3680490  15.8687920  68.5326150
  30.2929870  19.7362630  54.7545620  29.3893950  19.9992830  54.5797280
  30.7770490  20.0073800  53.9745580  32.8357080  18.7928170  52.6640000
  33.5448780  18.3711390  52.1787280  32.1197020  18.8603400  52.0323350
  32.4831240  14.8467500  51.7042650  33.2059370  15.3876440  52.0223870
  32.7555760  14.5730920  50.8284190  32.1723430  14.0973690  61.6065270
  32.8199620  13.5471070  61.1660430  32.5925270  14.3516840  62.4281080
  46.0675770  14.2915050  64.9634910  46.7047990  14.9049190  65.3294100
  46.2150660  14.3275710  64.0184140  48.6100320  16.1828840  51.7458050
  49.5349630  16.0510020  51.5376340  48.5876110  16.2621660  52.6994500
  31.9255430  14.2529360  64.3490590  31.5770250  14.7093180  65.1148770
  31.5943130  13.3586490  64.4313020  33.5319800  27.4248960  68.5143780
  33.4889430  27.0541870  69.3958240  33.6630810  28.3626530  68.6545600
  39.4380250  15.4441240  67.8710010  39.3769140  16.0363070  68.6205420
  40.3780630  15.3367200  67.7260270  42.0754810  15.1011300  67.5102300
  42.6895220  15.4190590  66.8483380  42.6204370  14.6159890  68.1298160
  32.5976070  13.7805560  67.6241360  33.1459060  13.5993610  66.8607470
  32.6631380  12.9899670  68.1597670  42.8162850  13.6643440  63.8371590
  41.9422690  13.9978550  63.6344520  42.7073600  13.1916620  64.6623460
  43.7234830  15.8714310  65.2213310  43.3948190  15.0566070  64.8415040
  44.6717130  15.8284120  65.0979000  33.0020060  27.7369590  64.5849600
  32.2754120  27.1174880  64.5175550  33.0629210  28.1310200  63.7147680
  40.5637670  14.5813280  62.7764500  39.7809460  15.0558780  63.0561260
  40.2700600  13.6768110  62.6677680  45.1158740  15.2836380  60.8213590
  45.5566830  15.2281480  59.9735190  44.8466330  16.1994390  60.8923770
  46.9797310  14.9151620  58.8322410  46.9185710  13.9712840  58.6853430
  47.7589340  15.0231710  59.3775870  31.9078080  14.8860760  55.2978220
  32.6657440  14.9989640  54.7242250  31.4455250  15.7229960  55.2521650
  42.9516870  13.6642480  59.5263600  43.5546240  14.2362690  60.0012120
  42.2109860  14.2281920  59.3037500  46.0951470  14.0664040  54.8003880
  46.2902100  14.9647490  55.0671310  45.3081340  13.8351120  55.2936830
  34.2803230  15.4124810  53.8380190  34.8095990  14.6254610  53.7088140
  34.9131550  16.0916000  54.0715720  36.4741070  15.1499950  56.8925580
  35.8443810  14.4487260  57.0595710  35.9346210  15.9104080  56.6758740
  36.5996630  14.4283930  69.3278070  36.3180900  14.9317530  68.5638890
  36.9816330  13.6305680  68.9620200  43.2012090  13.8437510  69.9058540
  43.0877540  14.1632120  70.8010060  44.0181830  14.2450020  69.6095820
  45.9810580  30.9909040  69.3877230  46.7735900  30.4958270  69.1803190
  46.2743730  31.6699180  69.9952840  34.2554110  23.9528810  43.0278310
  33.4238990  23.6977520  43.4274820  34.8635090  24.0239580  43.7636230
  34.2355370  27.9868900  43.2236330  34.5383410  27.0966640  43.0446550
  34.9798960  28.5439120  42.9958580  32.6646060  18.9130700  36.8120700
  31.7762760  19.2546670  36.7100580  32.9487250  18.7131020  35.9201530
  30.6279070  21.5136350  42.6960400  31.1995180  20.7458550  42.6964040
  30.6280610  21.8125110  41.7867010  39.6797270  26.3166190  42.1572710
  39.6105550  25.3756130  41.9961840  40.4417130  26.4067600  42.7295280
  31.8703940  16.9220710  44.4829330  31.6906780  16.0246460  44.7632090
  31.4684020  17.4692580  45.1576280  34.8407450  17.4962200  37.8459080
  34.9474200  18.3965930  38.1527840  33.9299810  17.4480170  37.5553730
  32.4890610  19.4181210  43.0911670  33.1700720  19.6819580  43.7099070
  32.1738660  18.5782080  43.4249680  36.6815180  20.4648570  42.1784260
  37.1893400  20.9629540  42.8189280  37.2128420  19.6883770  42.0023620
  36.2154130  24.7442310  44.6221180  35.8823510  25.3711230  45.2642250
  36.3920810  25.2704190  43.8422850  34.6466610  16.8157090  44.4518130
  34.9883420  17.6599140  44.1572000  33.7082420  16.9640830  44.5683470
  36.3231900  22.8952930  40.2942570  35.9188900  22.1830180  39.7988470
  36.4095020  22.5506170  41.1830610  36.7913600  26.5820490  42.4581780
  36.4941890  25.9765960  41.7789560  37.7413420  26.6197800  42.3471140
  35.0360520  19.6696140  44.0741610  35.5875110  19.7791480  43.2994860
  35.5504030  20.0433740  44.7896840  34.7103250  23.1915500  47.6846950
  34.5711020  24.0638300  48.0534350  33.8284610  22.8488310  47.5394890
  46.5054390  14.4238110  33.3371880  46.1927050  14.5164940  34.2370950
  47.2666860  15.0019140  33.2869310  33.0236530  21.7897910  37.7949220
  32.9034130  22.5160000  37.1830490  32.7137420  21.0200820  37.3177130
  31.9069530  26.6613240  40.0124040  31.4997610  26.8027830  39.1577640
  32.7982540  26.3773400  39.8095250  30.7181420  26.0027220  46.1412320
  30.8812460  25.5332580  45.3231690  31.1833870  25.4950780  46.8061160
  35.4900190  15.1332980  41.1772890  35.0468340  15.9142520  40.8457410
  36.0485180  15.4562870  41.8843830  38.6059010  14.7543680  36.0578720
  37.9813190  14.7503550  36.7832030  38.5189130  13.8874640  35.6614690
  35.2814410  20.2566550  38.9054140  35.0555330  20.0403720  39.8100760
  34.5006940  20.6895010  38.5600110  42.5112170  20.2629920  37.5044790
  41.9121060  20.9865720  37.3208410  43.0591780  20.2006700  36.7221240
  32.8524160  17.5665800  47.7248190  32.4587550  18.4141010  47.9320970
  32.1642560  16.9292170  47.9156830  30.1541210  15.4894260  41.7578270
  29.8654260  16.0597120  42.4703250  30.8986970  15.0098710  42.1209500
  33.9911950  18.0479900  40.9945550  33.6512000  18.5255130  41.7512600
  33.2289270  17.5945020  40.6346650  32.2920400  25.3778650  48.3008130
  31.9075190  24.7372320  48.8991090  32.6032590  26.0814770  48.8702860
  31.3058030  16.9698880  39.9110220  31.0204950  16.6054550  40.7488840
  31.2436890  16.2379340  39.2973360  36.2316910  21.2663830  46.1000960
  35.9273980  22.1455810  46.3251320  37.1863370  21.3263620  46.1358400
  40.9796620  15.8628140  36.6323590  40.1661230  15.3641310  36.5568900
  40.7858570  16.7026390  36.2159940  43.6945010  20.2347790  34.9285750
  44.5824630  20.5465020  34.7537090  43.6650100  19.3620040  34.5366330
  34.8036100  25.1405200  40.3346620  35.3214770  24.3373460  40.2803510
  34.3520120  25.0784340  41.1763450  32.2880640  22.1066570  47.2472320
  31.9295580  22.7720420  47.8345660  31.9935200  21.2750120  47.6184940
  37.9623500  23.4931040  37.9915200  38.4186280  24.3036290  38.2175390
  37.6111710  23.1754180  38.8233690  33.8635280  13.8368690  38.4637720
  33.7349910  13.8286590  39.4122640  33.0397300  14.1751780  38.1128730
  30.8629210  15.5959810  47.9244420  30.1487730  15.7956730  48.5297030
  31.2824250  14.8199380  48.2959220  45.7230020  17.0439060  36.4833430
  45.0943180  17.1484730  35.7691660  45.2281940  17.2635840  37.2727310
  37.6914050  19.3225010  37.8991310  36.9830200  19.7911350  38.3404920
  37.9758530  18.6647020  38.5336500  41.7229480  16.0475670  39.3387100
  41.5997260  16.0661800  38.3896610  42.6714040  16.0954610  39.4585500
  35.8949070  17.6310090  35.2742020  36.7439600  18.0680240  35.2082210
  35.5280340  17.9430350  36.1014080  31.0158050  23.1382440  49.6666610
  31.5197070  22.5589720  50.2382840  30.2765470  23.4222670  50.2042980
  43.2006730  14.7649040  35.1965230  43.4809020  13.9216940  35.5524650
  42.4272460  14.9972150  35.7103980  37.7386150  15.9976050  33.6412430
  37.3908150  15.3200040  33.0614880  37.9398920  15.5365560  34.4555820
  31.0791790  22.5263700  40.0376800  30.4240630  22.2575340  39.3936500
  31.9169740  22.4168180  39.5878780  44.0282230  17.3204990  34.2595290
  44.4467110  17.1335970  33.4191950  43.7218290  16.4684040  34.5698220
  32.1167720  22.9116270  44.5780140  32.4840760  22.8243670  45.4576160
  31.5478540  22.1482820  44.4787000  31.6683720  19.8225360  48.4838560
  30.7739770  19.7892120  48.8232270  32.2081270  20.0212150  49.2489810
  32.4831240  14.8467500  32.9299160  33.2059370  15.3876440  33.2480380
  32.7555760  14.5730920  32.0540700  32.1723430  14.0973690  42.8321780
  32.8199620  13.5471070  42.3916940  32.5925270  14.3516840  43.6537590
  48.6100320  16.1828840  32.9714560  49.5349630  16.0510020  32.7632850
  48.5876110  16.2621660  33.9251010  31.9255430  14.2529360  45.5747100
  31.5770250  14.7093180  46.3405280  31.5943130  13.3586490  45.6569530
  32.5976070  13.7805560  48.8497870  33.1459060  13.5993610  48.0863980
  32.6631380  12.9899670  49.3854180  36.6065160  29.9514590  42.5955520
  37.1230180  29.3401950  42.0703780  37.2562540  30.4543370  43.0866530
  31.9078080  14.8860760  36.5234730  32.6657440  14.9989640  35.9498760
  31.4455250  15.7229960  36.4778160  38.4491890  17.0000030  39.5137040
  37.6366400  16.6256920  39.1732920  38.9533530  16.2445110  39.8158230
  46.0951470  14.0664040  36.0260390  46.2902100  14.9647490  36.2927820
  45.3081340  13.8351120  36.5193340  34.2803230  15.4124810  35.0636700
  34.8095990  14.6254610  34.9344650  34.9131550  16.0916000  35.2972230
  36.4741070  15.1499950  38.1182090  35.8443810  14.4487260  38.2852220
  35.9346210  15.9104080  37.9015250  43.2012090  13.8437510  51.1315050
  43.0877540  14.1632120  52.0266570  44.0181830  14.2450020  50.8352330
  44.2595710  28.0469190  22.1558190  43.7977240  27.2756430  22.4845360
  45.0721260  28.0735260  22.6610640  32.6646060  18.9130700  18.0377210
  31.7762760  19.2546670  17.9357090  32.9487250  18.7131020  17.1458040
  30.6279070  21.5136350  23.9216910  31.1995180  20.7458550  23.9220550
  30.6280610  21.8125110  23.0123520  31.8703940  16.9220710  25.7085840
  31.6906780  16.0246460  25.9888600  31.4684020  17.4692580  26.3832790
  34.8407450  17.4962200  19.0715590  34.9474200  18.3965930  19.3784350
  33.9299810  17.4480170  18.7810240  44.4926560  16.6187010  20.5426490
  45.3136180  16.1283580  20.5851970  44.5260640  17.2084670  21.2958330
  32.4890610  19.4181210  24.3168180  33.1700720  19.6819580  24.9355580
  32.1738660  18.5782080  24.6506190  48.7826110  18.6353760  27.1070120
  48.0778280  19.0235470  26.5885230  49.0484030  19.3304050  27.7091050
  34.9651280  15.1047130  27.6704190  34.9669720  15.6219520  26.8650090
  34.1355590  14.6277310  27.6474120  44.7288040  18.5587390  23.3154030
  44.0243610  18.8472280  23.8957140  45.0900200  19.3687500  22.9553590
  30.7205570  25.9022970  16.5433720  30.3433550  26.3910070  15.8118620
  30.9778640  26.5748250  17.1740250  47.7974960  18.0042180  23.7063240
  46.8499870  18.0381160  23.8378670  48.1224950  18.8181130  24.0912600
  38.3294500  14.3039360  22.0019230  38.6369480  13.7486250  21.2854730
  37.3995200  14.4383820  21.8192220  45.1754980  26.7422870  19.3816860
  45.0651310  25.7997200  19.5066280  45.1723230  27.1038510  20.2679620
  40.7044340  18.6405190  15.7346510  39.7648010  18.8019150  15.8198970
  41.0227600  19.3590870  15.1882500  47.2257100  23.3223710  25.7125540
  46.3975730  23.3916800  25.2375670  47.8207580  23.9078020  25.2441370
  44.7472550  23.9308490  19.2414600  44.1284970  23.5928040  18.5940900
  44.7297000  23.2868250  19.9493790  44.1899110  20.1093030  26.6580410
  43.7770290  20.9346740  26.9120400  43.4575060  19.5238070  26.4656770
  42.9237250  23.1695300  16.2487350  43.3630530  22.3317730  16.1025170
  43.6365670  23.8024700  16.3351490  41.0332630  28.1091370  20.2168590
  41.4728540  28.8515700  19.8023980  40.9719520  28.3517940  21.1407550
  46.5054390  14.4238110  14.5628390  46.1927050  14.5164940  15.4627460
  47.2666860  15.0019140  14.5125820  33.0236530  21.7897910  19.0205730
  32.9034130  22.5160000  18.4087000  32.7137420  21.0200820  18.5433640
  30.6621900  24.9613050  24.8274370  30.7402320  25.0961820  23.8830090
  31.2763580  24.2528940  25.0202490  31.9069530  26.6613240  21.2380550
  31.4997610  26.8027830  20.3834150  32.7982540  26.3773400  21.0351760
  43.7002810  31.0960490  17.5731600  43.5403950  30.8063430  18.4713430
  43.5349520  30.3200620  17.0376830  36.1791190  30.8759020  19.3503220
  36.0033670  29.9594560  19.1371020  35.3246930  31.2346310  19.5901020
  43.4028940  28.6048050  16.1329600  42.7094100  28.6025340  15.4731880
  44.1451800  28.1807370  15.7023770  42.9678870  30.2310760  20.2078090
  43.4235820  29.4500140  20.5216710  43.3071390  30.9417580  20.7519270
  47.7155680  19.1609610  30.5402530  47.0999950  19.6689280  30.0117990
  47.3952100  18.2607940  30.4828470  35.4900190  15.1332980  22.4029400
  35.0468340  15.9142520  22.0713920  36.0485180  15.4562870  23.1100340
  44.7774510  19.2210450  29.1361380  43.9268100  18.9216200  29.4570450
  44.6176300  19.4652460  28.2245200  38.6059010  14.7543680  17.2835230
  37.9813190  14.7503550  18.0088540  38.5189130  13.8874640  16.8871200
  37.5276090  15.6780310  24.2619000  37.8248420  16.5843140  24.1811020
  38.0761650  15.1899090  23.6478570  42.5112170  20.2629920  18.7301300
  41.9121060  20.9865720  18.5464920  43.0591780  20.2006700  17.9477750
  41.1177040  18.8993460  20.7604580  41.5106610  19.2165660  19.9473270
  41.4793890  18.0205340  20.8749100  30.1541210  15.4894260  22.9834780
  29.8654260  16.0597120  23.6959760  30.8986970  15.0098710  23.3466010
  30.3411440  19.4314380  14.1937500  30.2586110  20.3745140  14.3352490
  29.9894500  19.2889290  13.3149850  33.9911950  18.0479900  22.2202060
  33.6512000  18.5255130  22.9769110  33.2289270  17.5945020  21.8603160
  38.2029720  19.1665490  16.2514610  38.3242540  19.1251970  17.2000430
  37.8178230  20.0289640  16.0961340  42.1658090  16.9432890  24.2678300
  42.1830830  17.3941540  25.1120150  41.9173670  16.0438530  24.4811740
  37.2151220  21.4766630  15.6497910  36.6468120  21.0284880  15.0233820
  37.9240220  21.8359410  15.1163060  45.5928840  14.3565070  30.1064680
  45.9174610  13.6254730  30.6322660  45.6285350  14.0378710  29.2045670
  31.3058030  16.9698880  21.1366730  31.0204950  16.6054550  21.9745350
  31.2436890  16.2379340  20.5229870  34.7598700  25.4724820  17.9224320
  33.9860960  24.9322440  17.7623040  35.4893330  24.9531430  17.5842080
  45.5186680  24.4690180  23.7150710  46.2385800  24.9645470  23.3246820
  45.3168500  23.7908070  23.0704580  40.9796620  15.8628140  17.8580100
  40.1661230  15.3641310  17.7825410  40.7858570  16.7026390  17.4416450
  43.6945010  20.2347790  16.1542260  44.5824630  20.5465020  15.9793600
  43.6650100  19.3620040  15.7622840  39.6905600  26.4071480  16.8330430
  40.0321300  27.1513710  16.3373750  38.8618310  26.7202600  17.1955260
  45.9659280  21.5459630  15.6222120  45.8823000  21.9773850  14.7718560
  46.6853470  22.0057980  16.0548940  47.0433420  24.0027150  28.6992090
  46.3181610  24.5955930  28.5021480  47.5708880  23.9950690  27.9005460
  46.9946530  28.4001890  18.3504250  46.3522690  27.7457510  18.6247970
  46.6077190  28.8056980  17.5744920  30.7988690  22.1057830  15.0963430
  31.6683540  22.3882630  15.3799350  30.3079010  22.9193700  14.9812240
  33.8635280  13.8368690  19.6894230  33.7349910  13.8286590  20.6379150
  33.0397300  14.1751780  19.3385240  45.3843910  27.2918350  14.8880600
  45.1581490  26.5748790  15.4805240  44.9940110  27.0430790  14.0502350
  31.1659940  31.3185210  15.6625060  31.5257580  31.9174550  15.0082330
  31.0252280  31.8645100  16.4360090  30.8629210  15.5959810  29.1500930
  30.1487730  15.7956730  29.7553540  31.2824250  14.8199380  29.5215730
  44.9660160  25.2090290  16.5494760  44.6781860  25.6702980  17.3372640
  45.7612330  24.7488060  16.8178980  37.1828560  28.7016410  16.4798730
  37.1738660  29.4346100  15.8643240  36.2626920  28.4547990  16.5725690
  32.7835200  23.9231300  17.2245490  32.1763150  24.6630200  17.2340790
  33.2584550  24.0130660  16.3983690  42.3567990  18.0882120  26.9002380
  42.7248810  17.2677330  27.2281950  41.4966190  18.1484010  27.3158030
  45.7230020  17.0439060  17.7089940  45.0943180  17.1484730  16.9948170
  45.2281940  17.2635840  18.4983820  40.1688160  28.7644650  15.1423920
  40.2700140  28.5608640  14.2125900  39.2689900  28.5102930  15.3471700
  41.7229480  16.0475670  20.5643610  41.5997260  16.0661800  19.6153120
  42.6714040  16.0954610  20.6842010  38.8106270  31.2830970  19.8371590
  39.0647770  31.2452360  18.9150960  37.8618750  31.1564300  19.8299840
  35.8949070  17.6310090  16.4998530  36.7439600  18.0680240  16.4338720
  35.5280340  17.9430350  17.3270590  46.5236840  16.9589670  27.9668740
  46.0210440  17.6995070  28.3062550  47.3393500  17.3473670  27.6505530
  44.8158850  22.2022850  21.4130100  43.8748990  22.2173080  21.5877790
  45.1302920  21.4158810  21.8590400  34.7940490  23.8842450  14.9734060
  35.5603760  23.7723810  15.5359490  34.8715180  23.1880420  14.3210830
  33.4887250  21.3167520  15.6566950  33.5690840  20.3695030  15.7684350
  34.3807000  21.6474400  15.7627610  31.1747440  27.5336480  18.6343000
  30.2487220  27.7757620  18.6248410  31.6403870  28.3610740  18.5127750
  37.4004270  30.6393220  14.5827060  38.1932880  30.9282050  14.1308850
  36.8808620  30.2085390  13.9039540  46.4534440  29.8663350  16.0063800
  46.1675950  29.4528490  15.1917980  46.2553990  30.7951060  15.8864320
  37.9181670  25.8596630  14.4469410  37.8132310  25.2448980  15.1730790
  37.7505890  25.3362520  13.6632420  41.1584400  24.9216660  15.0511400
  40.6094500  25.3685960  15.6954140  41.7803660  24.4165910  15.5749070
  36.8259520  23.8807580  16.9476700  37.2475940  23.7147450  17.7908090
  36.9510360  23.0707810  16.4531840  39.3387160  22.9045190  14.1953800
  39.8592820  22.1894210  13.8294950  39.9855560  23.5431060  14.4954310
  38.2420680  15.3839740  26.8672360  37.7937980  15.4064000  26.0217910
  37.6085880  14.9858760  27.4642660  35.7218420  19.9540810  13.8934860
  35.5207480  19.0908170  14.2548200  35.5510470  19.8674170  12.9556460
  42.5706330  18.1697410  30.3631480  41.8821850  17.5078950  30.2981470
  43.2912350  17.7235680  30.8079940  43.2006730  14.7649040  16.4221740
  43.4809020  13.9216940  16.7781160  42.4272460  14.9972150  16.9360490
  34.5201220  17.0541430  13.8812740  34.8227120  17.0608860  12.9731890
  35.2595810  16.7039290  14.3780400  37.7386150  15.9976050  14.8668940
  37.3908150  15.3200040  14.2871390  37.9398920  15.5365560  15.6812330
  39.9035190  30.9856800  16.4855540  40.7985980  31.3241770  16.5074300
  39.9352820  30.2636210  15.8579820  33.5431350  26.3583850  14.7142540
  33.9806220  26.9013520  15.3700120  34.0279080  25.5330800  14.7238880
  35.3539070  27.4781890  19.8264770  35.0534610  27.3546860  20.7268680
  35.2476560  26.6190480  19.4180500  48.1230990  27.2578290  14.5291450
  47.2923950  27.3254940  14.9998680  48.3002820  28.1482410  14.2258310
  47.5787450  24.0025770  17.0325650  48.3406360  24.5722420  17.1385340
  47.5941820  23.4352970  17.8033960  31.0791790  22.5263700  21.2633310
  30.4240630  22.2575340  20.6193010  31.9169740  22.4168180  20.8135290
  48.5847420  24.8575870  21.8767580  48.9556250  24.0743190  21.4703550
  49.2249350  25.5464970  21.6984880  47.6306620  24.2960140  14.1898170
  47.9055460  25.2039020  14.0617390  47.4417360  24.2322670  15.1260160
  44.0282230  17.3204990  15.4851800  44.4467110  17.1335970  14.6448460
  43.7218290  16.4684040  15.7954730  47.5271960  22.2329130  19.1827600
  47.1515560  21.4657060  18.7508890  46.7975080  22.6151830  19.6702530
  46.9171580  21.3800650  28.8167120  46.6857670  21.1513400  27.9165070
  47.1776130  22.3000200  28.7712010  45.3559650  16.6057080  31.5946820
  46.2329830  16.6140480  31.9780820  45.3680490  15.8687920  30.9839170
  30.2929870  19.7362630  17.2058640  29.3893950  19.9992830  17.0310300
  30.7770490  20.0073800  16.4258600  46.8022920  20.4586620  22.4834840
  47.3260400  19.9649270  21.8525010  47.3882340  20.5936980  23.2282410
  46.9812640  20.5426490  26.0054390  46.0315350  20.5090030  26.1199380
  47.1625650  21.4526600  25.7704160  32.8357080  18.7928170  15.1153020
  33.5448780  18.3711390  14.6300300  32.1197020  18.8603400  14.4836370
  32.4831240  14.8467500  14.1555670  33.2059370  15.3876440  14.4736890
  32.7555760  14.5730920  13.2797210  46.2922890  19.7159970  18.4227250
  46.7882010  19.4830840  19.2076130  46.0938960  18.8771810  18.0064890
  32.1723430  14.0973690  24.0578290  32.8199620  13.5471070  23.6173450
  32.5925270  14.3516840  24.8794100  47.7210050  18.3520920  20.9564930
  47.6109330  18.1976960  21.8947200  48.4817640  17.8241860  20.7140340
  46.0675770  14.2915050  27.4147930  46.7047990  14.9049190  27.7807120
  46.2150660  14.3275710  26.4697160  48.6100320  16.1828840  14.1971070
  49.5349630  16.0510020  13.9889360  48.5876110  16.2621660  15.1507520
  48.6838810  16.9539500  16.8227780  47.8890310  16.8884620  17.3520690
  48.8882090  17.8890140  16.8113130  31.9255430  14.2529360  26.8003610
  31.5770250  14.7093180  27.5661790  31.5943130  13.3586490  26.8826040
  39.4380250  15.4441240  30.3223030  39.3769140  16.0363070  31.0718440
  40.3780630  15.3367200  30.1773290  42.0754810  15.1011300  29.9615320
  42.6895220  15.4190590  29.2996400  42.6204370  14.6159890  30.5811180
  32.5976070  13.7805560  30.0754380  33.1459060  13.5993610  29.3120490
  32.6631380  12.9899670  30.6110690  42.8162850  13.6643440  26.2884610
  41.9422690  13.9978550  26.0857540  42.7073600  13.1916620  27.1136480
  43.7234830  15.8714310  27.6726330  43.3948190  15.0566070  27.2928060
  44.6717130  15.8284120  27.5492020  40.5637670  14.5813280  25.2277520
  39.7809460  15.0558780  25.5074280  40.2700600  13.6768110  25.1190700
  45.1158740  15.2836380  23.2726610  45.5566830  15.2281480  22.4248210
  44.8466330  16.1994390  23.3436790  46.9797310  14.9151620  21.2835430
  46.9185710  13.9712840  21.1366450  47.7589340  15.0231710  21.8288890
  31.9078080  14.8860760  17.7491240  32.6657440  14.9989640  17.1755270
  31.4455250  15.7229960  17.7034670  38.4491890  17.0000030  20.7393550
  37.6366400  16.6256920  20.3989430  38.9533530  16.2445110  21.0414740
  42.9516870  13.6642480  21.9776620  43.5546240  14.2362690  22.4525140
  42.2109860  14.2281920  21.7550520  46.0951470  14.0664040  17.2516900
  46.2902100  14.9647490  17.5184330  45.3081340  13.8351120  17.7449850
  34.2803230  15.4124810  16.2893210  34.8095990  14.6254610  16.1601160
  34.9131550  16.0916000  16.5228740  36.4741070  15.1499950  19.3438600
  35.8443810  14.4487260  19.5108730  35.9346210  15.9104080  19.1271760
  47.6478080  31.3064750  19.0123460  47.8230270  30.6202490  18.3684380
  46.9499650  31.8311800  18.6200130  36.5996630  14.4283930  31.7791090
  36.3180900  14.9317530  31.0151910  36.9816330  13.6305680  31.4133220
  35.4905730  31.6959590  16.5658770  36.2224550  31.4118870  16.0182660
  35.7499400  31.4572870  17.4558150  34.6520520  27.8124320  16.5705100
  34.0229400  28.2809420  17.1190930  34.7668350  26.9673540  17.0051290
  43.2012090  13.8437510  32.3571560  43.0877540  14.1632120  33.2523080
  44.0181830  14.2450020  32.0608840  42.1070240  21.8629980   2.7206300
  42.0264290  20.9484590   2.4498010  41.6934660  22.3597050   2.0146010
  40.2388280  23.6409000   4.6015570  39.4630380  23.1609440   4.8914140
  40.8901210  22.9614650   4.4271730  34.2554110  23.9528810   5.4791330
  33.4238990  23.6977520   5.8787840  34.8635090  24.0239580   6.2149250
  44.2595710  28.0469190   3.3814700  43.7977240  27.2756430   3.7101870
  45.0721260  28.0735260   3.8867150  34.2355370  27.9868900   5.6749350
  34.5383410  27.0966640   5.4959570  34.9798960  28.5439120   5.4471600
  30.6279070  21.5136350   5.1473420  31.1995180  20.7458550   5.1477060
  30.6280610  21.8125110   4.2380030  40.4859020  30.3327200   3.0018690
  39.8670460  30.7884700   2.4313130  41.3410800  30.4878660   2.6008390
  39.6797270  26.3166190   4.6085730  39.6105550  25.3756130   4.4474860
  40.4417130  26.4067600   5.1808300  31.8703940  16.9220710   6.9342350
  31.6906780  16.0246460   7.2145110  31.4684020  17.4692580   7.6089300
  40.7102440  19.1236570   4.8354660  41.0867260  18.2508450   4.7228330
  40.6121950  19.4595270   3.9445100  44.4926560  16.6187010   1.7683000
  45.3136180  16.1283580   1.8108480  44.5260640  17.2084670   2.5214840
  32.4890610  19.4181210   5.5424690  33.1700720  19.6819580   6.1612090
  32.1738660  18.5782080   5.8762700  36.6815180  20.4648570   4.6297280
  37.1893400  20.9629540   5.2702300  37.2128420  19.6883770   4.4536640
  48.7826110  18.6353760   8.3326630  48.0778280  19.0235470   7.8141740
  49.0484030  19.3304050   8.9347560  34.9651280  15.1047130   8.8960700
  34.9669720  15.6219520   8.0906600  34.1355590  14.6277310   8.8730630
  36.2154130  24.7442310   7.0734200  35.8823510  25.3711230   7.7155270
  36.3920810  25.2704190   6.2935870  44.7288040  18.5587390   4.5410540
  44.0243610  18.8472280   5.1213650  45.0900200  19.3687500   4.1810100
  34.6466610  16.8157090   6.9031150  34.9883420  17.6599140   6.6085020
  33.7082420  16.9640830   7.0196490  35.4273230  26.7123110   8.8883380
  36.0447230  27.3874190   8.6067830  34.5666350  27.1211090   8.7970880
  46.3450820  28.1762520   6.8038020  45.6614340  28.8461630   6.7954690
  46.8845110  28.3743170   6.0382880  47.7974960  18.0042180   4.9319750
  46.8499870  18.0381160   5.0635180  48.1224950  18.8181130   5.3169110
  38.3294500  14.3039360   3.2275740  38.6369480  13.7486250   2.5111240
  37.3995200  14.4383820   3.0448730  43.8809560  30.0206650   5.5183200
  43.8936720  29.6168940   4.6505460  43.3284780  30.7953940   5.4144630
  43.2795000  24.9236490   6.8465810  43.6963790  24.7096600   6.0119270
  44.0034820  25.1809280   7.4174430  47.2257100  23.3223710   6.9382050
  46.3975730  23.3916800   6.4632180  47.8207580  23.9078020   6.4697880
  44.1899110  20.1093030   7.8836920  43.7770290  20.9346740   8.1376910
  43.4575060  19.5238070   7.6913280  36.3231900  22.8952930   2.7455590
  35.9188900  22.1830180   2.2501490  36.4095020  22.5506170   3.6343630
  36.7913600  26.5820490   4.9094800  36.4941890  25.9765960   4.2302580
  37.7413420  26.6197800   4.7984160  35.0360520  19.6696140   6.5254630
  35.5875110  19.7791480   5.7507880  35.5504030  20.0433740   7.2409860
  44.8799210  30.1552360   8.5717900  44.4029770  30.9624550   8.3790510
  44.1961000  29.5030690   8.7244110  35.8832030  26.3202180  11.5602600
  34.9860560  26.5442150  11.8076000  35.9084900  26.4437120  10.6114000
  34.7103250  23.1915500  10.1359970  34.5711020  24.0638300  10.5047370
  33.8284610  22.8488310   9.9907910  36.5083600  29.1337200  12.3445120
  36.4799030  29.5380150  11.4773550  36.3448570  28.2047560  12.1816720
  48.4598420  29.9164300  13.6409290  48.9358140  30.3947190  14.3198370
  49.0805580  29.8481790  12.9154790  30.6621900  24.9613050   6.0530880
  30.7402320  25.0961820   5.1086600  31.2763580  24.2528940   6.2459000
  47.8631670  27.1077150  10.8009300  47.9894730  26.8689030   9.8826480
  47.9053050  26.2761690  11.2731380  41.7248410  30.8105150   9.3704110
  42.2393080  30.7213160  10.1726540  40.8817490  31.1564850   9.6632020
  47.7155680  19.1609610  11.7659040  47.0999950  19.6689280  11.2374500
  47.3952100  18.2607940  11.7084980  30.7181420  26.0027220   8.5925340
  30.8812460  25.5332580   7.7744710  31.1833870  25.4950780   9.2574180
  35.4900190  15.1332980   3.6285910  35.0468340  15.9142520   3.2970430
  36.0485180  15.4562870   4.3356850  39.7770000  18.0001500   9.2321230
  39.3149370  18.2084520  10.0441170  39.3748110  17.1860850   8.9291900
  44.7774510  19.2210450  10.3617890  43.9268100  18.9216200  10.6826960
  44.6176300  19.4652460   9.4501710  41.8724220  20.7212200  12.4616680
  42.1977630  19.8875950  12.1218910  42.6604550  21.2440720  12.6095010
  37.5276090  15.6780310   5.4875510  37.8248420  16.5843140   5.4067530
  38.0761650  15.1899090   4.8735080  37.7213620  21.1552130  12.0227430
  37.6257220  20.2146860  11.8727830  38.5645600  21.3767200  11.6275500
  32.8524160  17.5665800  10.1761210  32.4587550  18.4141010  10.3833990
  32.1642560  16.9292170  10.3669850  39.4269210  17.6500770  13.2457950
  38.7367530  17.4572970  13.8804040  40.1701510  17.9335410  13.7782250
  30.1541210  15.4894260   4.2091290  29.8654260  16.0597120   4.9216270
  30.8986970  15.0098710   4.5722520  41.7032180  21.4899210   6.0811870
  40.9713300  21.9986020   6.4301970  41.3056520  20.6729190   5.7800650
  38.1409570  18.1653410   4.4864360  38.1445630  17.7243360   3.6368900
  39.0360690  18.4870740   4.5936180  33.9911950  18.0479900   3.4458570
  33.6512000  18.5255130   4.2025620  33.2289270  17.5945020   3.0859670
  42.1658090  16.9432890   5.4934810  42.1830830  17.3941540   6.3376660
  41.9173670  16.0438530   5.7068250  45.5928840  14.3565070  11.3321190
  45.9174610  13.6254730  11.8579170  45.6285350  14.0378710  10.4302180
  32.2920400  25.3778650  10.7521150  31.9075190  24.7372320  11.3504110
  32.6032590  26.0814770  11.3215880  38.4417540  22.2255190   6.2329770
  38.8087670  21.7513760   6.9791110  38.2522600  23.0996760   6.5738110
  31.3058030  16.9698880   2.3623240  31.0204950  16.6054550   3.2001860
  31.2436890  16.2379340   1.7486380  36.2316910  21.2663830   8.5513980
  35.9273980  22.1455810   8.7764340  37.1863370  21.3263620   8.5871420
  45.5186680  24.4690180   4.9407220  46.2385800  24.9645470   4.5503330
  45.3168500  23.7908070   4.2961090  40.9005480  24.5399240  10.8276220
  40.8342790  23.6194910  10.5733810  40.2710620  24.6374680  11.5420860
  34.8036100  25.1405200   2.7859640  35.3214770  24.3373460   2.7316530
  34.3520120  25.0784340   3.6276470  32.2880640  22.1066570   9.6985340
  31.9295580  22.7720420  10.2858680  31.9935200  21.2750120  10.0697960
  35.4893760  22.5650810  12.5824890  35.1893900  22.7107990  11.6852710
  36.2605000  22.0056100  12.4898280  40.8322210  27.3619810  10.5780020
  40.8466750  26.4300770  10.3598930  40.1247310  27.4479570  11.2169790
  47.0433420  24.0027150   9.9248600  46.3181610  24.5955930   9.7277990
  47.5708880  23.9950690   9.1261970  42.5733010  25.7287320   3.4232450
  42.9256830  25.1315450   2.7633820  41.6895340  25.4031550   3.5940700
  40.2656110  29.0037380   7.6720520  40.9098330  29.2096760   8.3493940
  40.6285550  28.2425780   7.2191370  41.5388190  27.0069730   6.3897970
  42.1810420  26.3062890   6.5030140  42.0637540  27.7868170   6.2094860
  43.3125810  27.8064630   9.5934030  43.6482050  28.3931320  10.2711950
  42.3926150  27.6757340   9.8231820  30.8629210  15.5959810  10.3757440
  30.1487730  15.7956730  10.9810050  31.2824250  14.8199380  10.7472240
  31.1501800  29.5840070  11.3623970  31.2592920  28.6434810  11.2219360
  30.4982360  29.8494820  10.7137700  39.1414390  27.8555960  12.7622090
  38.8211260  27.1365200  13.3067780  38.4672750  28.5311030  12.8358150
  42.3567990  18.0882120   8.1258890  42.7248810  17.2677330   8.4538460
  41.4966190  18.1484010   8.5414540  39.3169980  20.7421710   8.3496860
  39.8155230  21.2167530   9.0148710  39.4592930  19.8185230   8.5566890
  46.5236840  16.9589670   9.1925250  46.0210440  17.6995070   9.5319060
  47.3393500  17.3473670   8.8762040  44.8158850  22.2022850   2.6386610
  43.8748990  22.2173080   2.8134300  45.1302920  21.4158810   3.0846910
  46.8184430  29.3731700   4.3140870  46.9431850  30.1962870   4.7864680
  47.6849990  29.1622430   3.9665020  34.2901960  31.4662910   3.9858000
  35.0264440  30.9178370   4.2566570  34.6742880  32.3318920   3.8463990
  33.2960240  30.6508980  13.1743580  34.0972970  30.9721030  13.5878980
  32.7812060  30.2904560  13.8963490  42.1324870  26.7588850  13.1218990
  41.5263030  26.7820450  12.3814740  41.8278980  26.0271890  13.6586240
  43.5625240  30.4869140  11.7328400  44.5146990  30.4027160  11.6828640
  43.4153460  31.1510850  12.4062190  31.0158050  23.1382440  12.1179630
  31.5197070  22.5589720  12.6895860  30.2765470  23.4222670  12.6556000
  38.0695990  24.5453430  11.6515150  37.3041660  25.1138430  11.5669820
  38.2511950  24.2529640  10.7583380  45.2119340  26.2758760  12.2090170
  45.9528810  26.6134520  11.7057630  44.4492020  26.4450820  11.6559940
  33.0481130  21.2812030  13.0129700  33.0886470  20.9825900  13.9214930
  33.9026630  21.6819640  12.8537220  34.9886940  19.8604130  10.9804190
  34.4583400  19.3695080  10.3527530  35.6575010  20.2888330  10.4462120
  43.8865000  24.3273590  10.7445380  44.3006020  24.4818670  11.5935800
  42.9516000  24.4528810  10.9071160  44.3587170  21.6669750  12.7484530
  44.9407940  20.9122070  12.6605010  44.5348940  22.1977190  11.9716010
  35.4759240  16.8266500  11.0601480  35.3816110  16.2087250  10.3352350
  34.8956630  17.5532790  10.8331390  38.2420680  15.3839740   8.0928870
  37.7937980  15.4064000   7.2474420  37.6085880  14.9858760   8.6899170
  38.6480230  24.2794070   8.7141310  39.0668340  25.1226800   8.5417550
  37.7288860  24.4166110   8.4848090  40.9844130  22.0110250  10.0979150
  41.1040340  21.4151390  10.8373990  41.8438130  22.0479940   9.6780450
  43.3232030  22.5647440   8.6741660  42.7967250  23.0890060   8.0706800
  43.6663370  23.1974830   9.3051390  36.4987650  30.5847080   9.8299040
  35.9608740  31.3093140   9.5107740  36.7521610  30.1077420   9.0396380
  37.7512900  18.5531600  11.3554970  38.3412590  18.2447450  12.0432790
  36.9333140  18.0811350  11.5114870  42.5706330  18.1697410  11.5887990
  41.8821850  17.5078950  11.5237980  43.2912350  17.7235680  12.0336450
  39.3549860  31.8198290  10.0885690  39.2808560  32.7233430  10.3958060
  38.4528700  31.5010190  10.0607760  30.7577150  29.1472880   3.3919310
  31.0880160  28.2793940   3.1597950  31.1868150  29.3531400   4.2224270
  31.2467360  30.0143470   6.1300940  30.8098350  30.1944270   6.9625090
  31.8145040  30.7718090   5.9882660  46.8829540  29.5160470  10.4178250
  46.2831530  29.5753030   9.6742170  47.0123440  28.5765450  10.5475100
  31.0791790  22.5263700   2.4889820  30.4240630  22.2575340   1.8449520
  31.9169740  22.4168180   2.0391800  48.5847420  24.8575870   3.1024090
  48.9556250  24.0743190   2.6960060  49.2249350  25.5464970   2.9241390
  45.5681180  26.2412450   8.5154410  44.7541020  26.6709610   8.7780200
  45.9755380  26.8530860   7.9023460  32.1167720  22.9116270   7.0293160
  32.4840760  22.8243670   7.9089180  31.5478540  22.1482820   6.9300020
  46.9171580  21.3800650  10.0423630  46.6857670  21.1513400   9.1421580
  47.1776130  22.3000200   9.9968520  31.6683720  19.8225360  10.9351580
  30.7739770  19.7892120  11.2745290  32.2081270  20.0212150  11.7002830
  45.3559650  16.6057080  12.8203330  46.2329830  16.6140480  13.2037330
  45.3680490  15.8687920  12.2095680  46.8022920  20.4586620   3.7091350
  47.3260400  19.9649270   3.0781520  47.3882340  20.5936980   4.4538920
  46.9812640  20.5426490   7.2310900  46.0315350  20.5090030   7.3455890
  47.1625650  21.4526600   6.9960670  32.1723430  14.0973690   5.2834800
  32.8199620  13.5471070   4.8429960  32.5925270  14.3516840   6.1050610
  47.7210050  18.3520920   2.1821440  47.6109330  18.1976960   3.1203710
  48.4817640  17.8241860   1.9396850  46.0675770  14.2915050   8.6404440
  46.7047990  14.9049190   9.0063630  46.2150660  14.3275710   7.6953670
  31.9255430  14.2529360   8.0260120  31.5770250  14.7093180   8.7918300
  31.5943130  13.3586490   8.1082550  33.5319800  27.4248960  12.1913310
  33.4889430  27.0541870  13.0727770  33.6630810  28.3626530  12.3315130
  37.2325830  28.9808550   7.7923030  36.9917190  29.2483110   6.9053550
  38.1728470  29.1514280   7.8473890  39.4380250  15.4441240  11.5479540
  39.3769140  16.0363070  12.2974950  40.3780630  15.3367200  11.4029800
  42.0754810  15.1011300  11.1871830  42.6895220  15.4190590  10.5252910
  42.6204370  14.6159890  11.8067690  48.4929990  31.0002930   8.5933670
  47.9988270  31.3971800   7.8760800  47.8843280  30.3752140   8.9870950
  32.5976070  13.7805560  11.3010890  33.1459060  13.5993610  10.5377000
  32.6631380  12.9899670  11.8367200  33.3707830  30.3711210   9.3111090
  32.7768150  30.2395910  10.0501130  33.3631670  29.5349350   8.8453190
  42.8162850  13.6643440   7.5141120  41.9422690  13.9978550   7.3114050
  42.7073600  13.1916620   8.3392990  43.7234830  15.8714310   8.8982840
  43.3948190  15.0566070   8.5184570  44.6717130  15.8284120   8.7748530
  46.1769440  31.6426350   5.8720410  45.7172410  32.3942160   5.4978430
  45.5481900  30.9232820   5.8135210  33.0020060  27.7369590   8.2619130
  32.2754120  27.1174880   8.1945080  33.0629210  28.1310200   7.3917210
  36.6065160  29.9514590   5.0468540  37.1230180  29.3401950   4.5216800
  37.2562540  30.4543370   5.5379550  39.3460660  30.8423080   5.8737520
  39.6338470  30.5877380   4.9970530  39.8583880  30.2900440   6.4643090
  40.5637670  14.5813280   6.4534030  39.7809460  15.0558780   6.7330790
  40.2700600  13.6768110   6.3447210  45.1158740  15.2836380   4.4983120
  45.5566830  15.2281480   3.6504720  44.8466330  16.1994390   4.5693300
  46.9797310  14.9151620   2.5091940  46.9185710  13.9712840   2.3622960
  47.7589340  15.0231710   3.0545400  42.9516870  13.6642480   3.2033130
  43.5546240  14.2362690   3.6781650  42.2109860  14.2281920   2.9807030
  39.4133020  31.7639180  13.2405720  40.3400330  31.5283450  13.2841680
  39.3983450  32.5911180  12.7591750  36.5996630  14.4283930  13.0047600
  36.3180900  14.9317530  12.2408420  36.9816330  13.6305680  12.6389730
  43.2012090  13.8437510  13.5828070  43.0877540  14.1632120  14.4779590
  44.0181830  14.2450020  13.2865350  45.9810580  30.9909040  13.0646760
  46.7735900  30.4958270  12.8572720  46.2743730  31.6699180  13.6722370
  42.1070240   3.0886490  77.8180260  42.0264290   2.1741100  77.5471970
  41.6934660   3.5853560  77.1119970  40.2388280   4.8665510  79.6989530
  39.4630380   4.3865950  79.9888100  40.8901210   4.1871160  79.5245690
  34.2554110   5.1785320  80.5765290  33.4238990   4.9234030  80.9761800
  34.8635090   5.2496090  81.3123210  44.2595710   9.2725700  78.4788660
  43.7977240   8.5012940  78.8075830  45.0721260   9.2991770  78.9841110
  34.2355370   9.2125410  80.7723310  34.5383410   8.3223150  80.5933530
  34.9798960   9.7695630  80.5445560  30.6279070   2.7392860  80.2447380
  31.1995180   1.9715060  80.2451020  30.6280610   3.0381620  79.3353990
  40.4859020  11.5583710  78.0992650  39.8670460  12.0141210  77.5287090
  41.3410800  11.7135170  77.6982350  39.6797270   7.5422700  79.7059690
  39.6105550   6.6012640  79.5448820  40.4417130   7.6324110  80.2782260
  41.3522370   6.4422950  75.4924560  40.7339640   6.9072400  74.9287280
  41.8645620   7.1350430  75.9094070  30.7205570   7.1279480  72.8664190
  30.3433550   7.6166580  72.1349090  30.9778640   7.8004760  73.4970720
  46.3450820   9.4019030  81.9011980  45.6614340  10.0718140  81.8928650
  46.8845110   9.5999680  81.1356840  43.8809560  11.2463160  80.6157160
  43.8936720  10.8425450  79.7479420  43.3284780  12.0210450  80.5118590
  45.1754980   7.9679380  75.7047330  45.0651310   7.0253710  75.8296750
  45.1723230   8.3295020  76.5910090  40.7175260   3.5944700  75.0609820
  39.7904540   3.5282080  75.2898290  40.8700080   4.5324830  74.9465060
  47.2257100   4.5480220  82.0356010  46.3975730   4.6173310  81.5606140
  47.8207580   5.1334530  81.5671840  44.7472550   5.1565000  75.5645070
  44.1284970   4.8184550  74.9171370  44.7297000   4.5124760  76.2724260
  36.3231900   4.1209440  77.8429550  35.9188900   3.4086690  77.3475450
  36.4095020   3.7762680  78.7317590  36.7913600   7.8077000  80.0068760
  36.4941890   7.2022470  79.3276540  37.7413420   7.8454310  79.8958120
  42.9237250   4.3951810  72.5717820  43.3630530   3.5574240  72.4255640
  43.6365670   5.0281210  72.6581960  41.0332630   9.3347880  76.5399060
  41.4728540  10.0772210  76.1254450  40.9719520   9.5774450  77.4638020
  33.0236530   3.0154420  75.3436200  32.9034130   3.7416510  74.7317470
  32.7137420   2.2457330  74.8664110  30.6621900   6.1869560  81.1504840
  30.7402320   6.3218330  80.2060560  31.2763580   5.4785450  81.3432960
  31.9069530   7.8869750  77.5611020  31.4997610   8.0284340  76.7064620
  32.7982540   7.6029910  77.3582230  43.7002810  12.3217000  73.8962070
  43.5403950  12.0319940  74.7943900  43.5349520  11.5457130  73.3607300
  36.1791190  12.1015530  75.6733690  36.0033670  11.1851070  75.4601490
  35.3246930  12.4602820  75.9131490  43.4028940   9.8304560  72.4560070
  42.7094100   9.8281850  71.7962350  44.1451800   9.4063880  72.0254240
  42.9678870  11.4567270  76.5308560  43.4235820  10.6756650  76.8447180
  43.3071390  12.1674090  77.0749740  41.7032180   2.7155720  81.1785830
  40.9713300   3.2242530  81.5275930  41.3056520   1.8985700  80.8774610
  37.2151220   2.7023140  71.9728380  36.6468120   2.2541390  71.3464290
  37.9240220   3.0615920  71.4393530  34.7598700   6.6981330  74.2454790
  33.9860960   6.1578950  74.0853510  35.4893330   6.1787940  73.9072550
  45.5186680   5.6946690  80.0381180  46.2385800   6.1901980  79.6477290
  45.3168500   5.0164580  79.3935050  34.8036100   6.3661710  77.8833600
  35.3214770   5.5629970  77.8290490  34.3520120   6.3040850  78.7250430
  39.6905600   7.6327990  73.1560900  40.0321300   8.3770220  72.6604220
  38.8618310   7.9459110  73.5185730  45.9659280   2.7716140  71.9452590
  45.8823000   3.2030360  71.0949030  46.6853470   3.2314490  72.3779410
  46.9946530   9.6258400  74.6734720  46.3522690   8.9714020  74.9478440
  46.6077190  10.0313490  73.8975390  42.5733010   6.9543830  78.5206410
  42.9256830   6.3571960  77.8607780  41.6895340   6.6288060  78.6914660
  38.6596290   7.7141520  75.9276820  39.3467420   8.2610730  76.3084410
  37.8728710   8.2582250  75.9626430  30.7988690   3.3314340  71.4193900
  31.6683540   3.6139140  71.7029820  30.3079010   4.1450210  71.3042710
  37.9623500   4.7187550  75.5402180  38.4186280   5.5292800  75.7662370
  37.6111710   4.4010690  76.3720670  41.5388190   8.2326240  81.4871930
  42.1810420   7.5319400  81.6004100  42.0637540   9.0124680  81.3068820
  45.3843910   8.5174860  71.2111070  45.1581490   7.8005300  71.8035710
  44.9940110   8.2687300  70.3732820  31.1659940  12.5441720  71.9855530
  31.5257580  13.1431060  71.3312800  31.0252280  13.0901610  72.7590560
  44.9660160   6.4346800  72.8725230  44.6781860   6.8959490  73.6603110
  45.7612330   5.9744570  73.1409450  37.1828560   9.9272920  72.8029200
  37.1738660  10.6602610  72.1873710  36.2626920   9.6804500  72.8956160
  32.7835200   5.1487810  73.5475960  32.1763150   5.8886710  73.5571260
  33.2584550   5.2387170  72.7214160  40.1688160   9.9901160  71.4654390
  40.2700140   9.7865150  70.5356370  39.2689900   9.7359440  71.6702170
  38.8106270  12.5087480  76.1602060  39.0647770  12.4708870  75.2381430
  37.8618750  12.3820810  76.1530310  44.8158850   3.4279360  77.7360570
  43.8748990   3.4429590  77.9108260  45.1302920   2.6415320  78.1820870
  34.7940490   5.1098960  71.2964530  35.5603760   4.9980320  71.8589960
  34.8715180   4.4136930  70.6441300  46.8184430  10.5988210  79.4114830
  46.9431850  11.4219380  79.8838640  47.6849990  10.3878940  79.0638980
  34.2901960  12.6919420  79.0831960  35.0264440  12.1434880  79.3540530
  34.6742880  13.5575430  78.9437950  31.1747440   8.7592990  74.9573470
  30.2487220   9.0014130  74.9478880  31.6403870   9.5867250  74.8358220
  37.4004270  11.8649730  70.9057530  38.1932880  12.1538560  70.4539320
  36.8808620  11.4341900  70.2270010  46.4534440  11.0919860  72.3294270
  46.1675950  10.6785000  71.5148450  46.2553990  12.0207570  72.2094790
  37.9181670   7.0853140  70.7699880  37.8132310   6.4705490  71.4961260
  37.7505890   6.5619030  69.9862890  41.1584400   6.1473170  71.3741870
  40.6094500   6.5942470  72.0184610  41.7803660   5.6422420  71.8979540
  36.8259520   5.1064090  73.2707170  37.2475940   4.9403960  74.1138560
  36.9510360   4.2964320  72.7762310  39.3387160   4.1301700  70.5184270
  39.8592820   3.4150720  70.1525420  39.9855560   4.7687570  70.8184780
  39.9035190  12.2113310  72.8086010  40.7985980  12.5498280  72.8304770
  39.9352820  11.4892720  72.1810290  33.5431350   7.5840360  71.0373010
  33.9806220   8.1270030  71.6930590  34.0279080   6.7587310  71.0469350
  30.7577150  10.3729390  78.4893270  31.0880160   9.5050450  78.2571910
  31.1868150  10.5787910  79.3198230  35.3539070   8.7038400  76.1495240
  35.0534610   8.5803370  77.0499150  35.2476560   7.8446990  75.7410970
  48.1230990   8.4834800  70.8521920  47.2923950   8.5511450  71.3229150
  48.3002820   9.3738920  70.5488780  47.5787450   5.2282280  73.3556120
  48.3406360   5.7978930  73.4615810  47.5941820   4.6609480  74.1264430
  31.0791790   3.7520210  77.5863780  30.4240630   3.4831850  76.9423480
  31.9169740   3.6424690  77.1365760  48.5847420   6.0832380  78.1998050
  48.9556250   5.2999700  77.7934020  49.2249350   6.7721480  78.0215350
  47.6306620   5.5216650  70.5128640  47.9055460   6.4295530  70.3847860
  47.4417360   5.4579180  71.4490630  47.5271960   3.4585640  75.5058070
  47.1515560   2.6913570  75.0739360  46.7975080   3.8408340  75.9933000
  45.6257230  12.2187560  77.1396640  46.2216300  11.8972130  76.4631060
  45.8835380  11.7459380  77.9309910  46.1769440  12.8682860  80.9694370
  45.7172410  13.6198670  80.5952390  45.5481900  12.1489330  80.9109170
  36.6065160  11.1771100  80.1442500  37.1230180  10.5658460  79.6190760
  37.2562540  11.6799880  80.6353510  39.3460660  12.0679590  80.9711480
  39.6338470  11.8133890  80.0944490  39.8583880  11.5156950  81.5617050
  31.2850060  12.2800490  76.5689850  31.1172100  11.6471170  77.2671740
  30.4184570  12.4859890  76.2184040  32.8912760  10.9733720  74.0139990
  32.3660380  11.3541750  73.3101950  32.8157340  11.5984490  74.7349700
  47.6478080  12.5321260  75.3353930  47.8230270  11.8459000  74.6914850
  46.9499650  13.0568310  74.9430600  35.4905730  12.9216100  72.8889240
  36.2224550  12.6375380  72.3413130  35.7499400  12.6829380  73.7788620
  34.6520520   9.0380830  72.8935570  34.0229400   9.5065930  73.4421400
  34.7668350   8.1930050  73.3281760  42.1070240   3.0886490  59.0436770
  42.0264290   2.1741100  58.7728480  41.6934660   3.5853560  58.3376480
  40.2388280   4.8665510  60.9246040  39.4630380   4.3865950  61.2144610
  40.8901210   4.1871160  60.7502200  34.2554110   5.1785320  61.8021800
  33.4238990   4.9234030  62.2018310  34.8635090   5.2496090  62.5379720
  44.2595710   9.2725700  59.7045170  43.7977240   8.5012940  60.0332340
  45.0721260   9.2991770  60.2097620  34.2355370   9.2125410  61.9979820
  34.5383410   8.3223150  61.8190040  34.9798960   9.7695630  61.7702070
  30.6279070   2.7392860  61.4703890  31.1995180   1.9715060  61.4707530
  30.6280610   3.0381620  60.5610500  40.4859020  11.5583710  59.3249160
  39.8670460  12.0141210  58.7543600  41.3410800  11.7135170  58.9238860
  39.6797270   7.5422700  60.9316200  39.6105550   6.6012640  60.7705330
  40.4417130   7.6324110  61.5038770  41.3522370   6.4422950  56.7181070
  40.7339640   6.9072400  56.1543790  41.8645620   7.1350430  57.1350580
  36.2154130   5.9698820  63.3964670  35.8823510   6.5967740  64.0385740
  36.3920810   6.4960700  62.6166340  35.4273230   7.9379620  65.2113850
  36.0447230   8.6130700  64.9298300  34.5666350   8.3467600  65.1201350
  30.7205570   7.1279480  54.0920700  30.3433550   7.6166580  53.3605600
  30.9778640   7.8004760  54.7227230  46.3450820   9.4019030  63.1268490
  45.6614340  10.0718140  63.1185160  46.8845110   9.5999680  62.3613350
  43.8809560  11.2463160  61.8413670  43.8936720  10.8425450  60.9735930
  43.3284780  12.0210450  61.7375100  45.1754980   7.9679380  56.9303840
  45.0651310   7.0253710  57.0553260  45.1723230   8.3295020  57.8166600
  43.2795000   6.1493000  63.1696280  43.6963790   5.9353110  62.3349740
  44.0034820   6.4065790  63.7404900  40.7175260   3.5944700  56.2866330
  39.7904540   3.5282080  56.5154800  40.8700080   4.5324830  56.1721570
  47.2257100   4.5480220  63.2612520  46.3975730   4.6173310  62.7862650
  47.8207580   5.1334530  62.7928350  44.7472550   5.1565000  56.7901580
  44.1284970   4.8184550  56.1427880  44.7297000   4.5124760  57.4980770
  36.3231900   4.1209440  59.0686060  35.9188900   3.4086690  58.5731960
  36.4095020   3.7762680  59.9574100  36.7913600   7.8077000  61.2325270
  36.4941890   7.2022470  60.5533050  37.7413420   7.8454310  61.1214630
  44.8799210  11.3808870  64.8948370  44.4029770  12.1881060  64.7020980
  44.1961000  10.7287200  65.0474580  35.8832030   7.5458690  67.8833070
  34.9860560   7.7698660  68.1306470  35.9084900   7.6693630  66.9344470
  42.9237250   4.3951810  53.7974330  43.3630530   3.5574240  53.6512150
  43.6365670   5.0281210  53.8838470  34.7103250   4.4172010  66.4590440
  34.5711020   5.2894810  66.8277840  33.8284610   4.0744820  66.3138380
  41.0332630   9.3347880  57.7655570  41.4728540  10.0772210  57.3510960
  40.9719520   9.5774450  58.6894530  36.5083600  10.3593710  68.6675590
  36.4799030  10.7636660  67.8004020  36.3448570   9.4304070  68.5047190
  33.0236530   3.0154420  56.5692710  32.9034130   3.7416510  55.9573980
  32.7137420   2.2457330  56.0920620  48.4598420  11.1420810  69.9639760
  48.9358140  11.6203700  70.6428840  49.0805580  11.0738300  69.2385260
  30.6621900   6.1869560  62.3761350  30.7402320   6.3218330  61.4317070
  31.2763580   5.4785450  62.5689470  31.9069530   7.8869750  58.7867530
  31.4997610   8.0284340  57.9321130  32.7982540   7.6029910  58.5838740
  47.8631670   8.3333660  67.1239770  47.9894730   8.0945540  66.2056950
  47.9053050   7.5018200  67.5961850  41.7248410  12.0361660  65.6934580
  42.2393080  11.9469670  66.4957010  40.8817490  12.3821360  65.9862490
  43.7002810  12.3217000  55.1218580  43.5403950  12.0319940  56.0200410
  43.5349520  11.5457130  54.5863810  36.1791190  12.1015530  56.8990200
  36.0033670  11.1851070  56.6858000  35.3246930  12.4602820  57.1388000
  43.4028940   9.8304560  53.6816580  42.7094100   9.8281850  53.0218860
  44.1451800   9.4063880  53.2510750  42.9678870  11.4567270  57.7565070
  43.4235820  10.6756650  58.0703690  43.3071390  12.1674090  58.3006250
  30.7181420   7.2283730  64.9155810  30.8812460   6.7589090  64.0975180
  31.1833870   6.7207290  65.5804650  41.7032180   2.7155720  62.4042340
  40.9713300   3.2242530  62.7532440  41.3056520   1.8985700  62.1031120
  37.2151220   2.7023140  53.1984890  36.6468120   2.2541390  52.5720800
  37.9240220   3.0615920  52.6650040  32.2920400   6.6035160  67.0751620
  31.9075190   5.9628830  67.6734580  32.6032590   7.3071280  67.6446350
  38.4417540   3.4511700  62.5560240  38.8087670   2.9770270  63.3021580
  38.2522600   4.3253270  62.8968580  36.2316910   2.4920340  64.8744450
  35.9273980   3.3712320  65.0994810  37.1863370   2.5520130  64.9101890
  34.7598700   6.6981330  55.4711300  33.9860960   6.1578950  55.3110020
  35.4893330   6.1787940  55.1329060  45.5186680   5.6946690  61.2637690
  46.2385800   6.1901980  60.8733800  45.3168500   5.0164580  60.6191560
  40.9005480   5.7655750  67.1506690  40.8342790   4.8451420  66.8964280
  40.2710620   5.8631190  67.8651330  34.8036100   6.3661710  59.1090110
  35.3214770   5.5629970  59.0547000  34.3520120   6.3040850  59.9506940
  39.6905600   7.6327990  54.3817410  40.0321300   8.3770220  53.8860730
  38.8618310   7.9459110  54.7442240  32.2880640   3.3323080  66.0215810
  31.9295580   3.9976930  66.6089150  31.9935200   2.5006630  66.3928430
  35.4893760   3.7907320  68.9055360  35.1893900   3.9364500  68.0083180
  36.2605000   3.2312610  68.8128750  40.8322210   8.5876320  66.9010490
  40.8466750   7.6557280  66.6829400  40.1247310   8.6736080  67.5400260
  45.9659280   2.7716140  53.1709100  45.8823000   3.2030360  52.3205540
  46.6853470   3.2314490  53.6035920  47.0433420   5.2283660  66.2479070
  46.3181610   5.8212440  66.0508460  47.5708880   5.2207200  65.4492440
  46.9946530   9.6258400  55.8991230  46.3522690   8.9714020  56.1734950
  46.6077190  10.0313490  55.1231900  42.5733010   6.9543830  59.7462920
  42.9256830   6.3571960  59.0864290  41.6895340   6.6288060  59.9171170
  38.6596290   7.7141520  57.1533330  39.3467420   8.2610730  57.5340920
  37.8728710   8.2582250  57.1882940  30.7988690   3.3314340  52.6450410
  31.6683540   3.6139140  52.9286330  30.3079010   4.1450210  52.5299220
  37.9623500   4.7187550  56.7658690  38.4186280   5.5292800  56.9918880
  37.6111710   4.4010690  57.5977180  40.2656110  10.2293890  63.9950990
  40.9098330  10.4353270  64.6724410  40.6285550   9.4682290  63.5421840
  41.5388190   8.2326240  62.7128440  42.1810420   7.5319400  62.8260610
  42.0637540   9.0124680  62.5325330  45.3843910   8.5174860  52.4367580
  45.1581490   7.8005300  53.0292220  44.9940110   8.2687300  51.5989330
  43.3125810   9.0321140  65.9164500  43.6482050   9.6187830  66.5942420
  42.3926150   8.9013850  66.1462290  31.1659940  12.5441720  53.2112040
  31.5257580  13.1431060  52.5569310  31.0252280  13.0901610  53.9847070
  44.9660160   6.4346800  54.0981740  44.6781860   6.8959490  54.8859620
  45.7612330   5.9744570  54.3665960  31.1501800  10.8096580  67.6854440
  31.2592920   9.8691320  67.5449830  30.4982360  11.0751330  67.0368170
  39.1414390   9.0812470  69.0852560  38.8211260   8.3621710  69.6298250
  38.4672750   9.7567540  69.1588620  37.1828560   9.9272920  54.0285710
  37.1738660  10.6602610  53.4130220  36.2626920   9.6804500  54.1212670
  32.7835200   5.1487810  54.7732470  32.1763150   5.8886710  54.7827770
  33.2584550   5.2387170  53.9470670  40.1688160   9.9901160  52.6910900
  40.2700140   9.7865150  51.7612880  39.2689900   9.7359440  52.8958680
  38.8106270  12.5087480  57.3858570  39.0647770  12.4708870  56.4637940
  37.8618750  12.3820810  57.3786820  44.8158850   3.4279360  58.9617080
  43.8748990   3.4429590  59.1364770  45.1302920   2.6415320  59.4077380
  34.7940490   5.1098960  52.5221040  35.5603760   4.9980320  53.0846470
  34.8715180   4.4136930  51.8697810  46.8184430  10.5988210  60.6371340
  46.9431850  11.4219380  61.1095150  47.6849990  10.3878940  60.2895490
  34.2901960  12.6919420  60.3088470  35.0264440  12.1434880  60.5797040
  34.6742880  13.5575430  60.1694460  31.1747440   8.7592990  56.1829980
  30.2487220   9.0014130  56.1735390  31.6403870   9.5867250  56.0614730
  33.2960240  11.8765490  69.4974050  34.0972970  12.1977540  69.9109450
  32.7812060  11.5161070  70.2193960  37.4004270  11.8649730  52.1314040
  38.1932880  12.1538560  51.6795830  36.8808620  11.4341900  51.4526520
  42.1324870   7.9845360  69.4449460  41.5263030   8.0076960  68.7045210
  41.8278980   7.2528400  69.9816710  43.5625240  11.7125650  68.0558870
  44.5146990  11.6283670  68.0059110  43.4153460  12.3767360  68.7292660
  46.4534440  11.0919860  53.5550780  46.1675950  10.6785000  52.7404960
  46.2553990  12.0207570  53.4351300  31.0158050   4.3638950  68.4410100
  31.5197070   3.7846230  69.0126330  30.2765470   4.6479180  68.9786470
  37.9181670   7.0853140  51.9956390  37.8132310   6.4705490  52.7217770
  37.7505890   6.5619030  51.2119400  38.0695990   5.7709940  67.9745620
  37.3041660   6.3394940  67.8900290  38.2511950   5.4786150  67.0813850
  41.1584400   6.1473170  52.5998380  40.6094500   6.5942470  53.2441120
  41.7803660   5.6422420  53.1236050  45.2119340   7.5015270  68.5320640
  45.9528810   7.8391030  68.0288100  44.4492020   7.6707330  67.9790410
  33.0481130   2.5068540  69.3360170  33.0886470   2.2082410  70.2445400
  33.9026630   2.9076150  69.1767690  36.8259520   5.1064090  54.4963680
  37.2475940   4.9403960  55.3395070  36.9510360   4.2964320  54.0018820
  39.3387160   4.1301700  51.7440780  39.8592820   3.4150720  51.3781930
  39.9855560   4.7687570  52.0441290  43.8865000   5.5530100  67.0675850
  44.3006020   5.7075180  67.9166270  42.9516000   5.6785320  67.2301630
  44.3587170   2.8926260  69.0715000  44.9407940   2.1378580  68.9835480
  44.5348940   3.4233700  68.2946480  38.6480230   5.5050580  65.0371780
  39.0668340   6.3483310  64.8648020  37.7288860   5.6422620  64.8078560
  40.9844130   3.2366760  66.4209620  41.1040340   2.6407900  67.1604460
  41.8438130   3.2736450  66.0010920  43.3232030   3.7903950  64.9972130
  42.7967250   4.3146570  64.3937270  43.6663370   4.4231340  65.6281860
  36.4987650  11.8103590  66.1529510  35.9608740  12.5349650  65.8338210
  36.7521610  11.3333930  65.3626850  39.3549860  13.0454800  66.4116160
  39.2808560  13.9489940  66.7188530  38.4528700  12.7266700  66.3838230
  39.9035190  12.2113310  54.0342520  40.7985980  12.5498280  54.0561280
  39.9352820  11.4892720  53.4066800  33.5431350   7.5840360  52.2629520
  33.9806220   8.1270030  52.9187100  34.0279080   6.7587310  52.2725860
  30.7577150  10.3729390  59.7149780  31.0880160   9.5050450  59.4828420
  31.1868150  10.5787910  60.5454740  35.3539070   8.7038400  57.3751750
  35.0534610   8.5803370  58.2755660  35.2476560   7.8446990  56.9667480
  31.2467360  11.2399980  62.4531410  30.8098350  11.4200780  63.2855560
  31.8145040  11.9974600  62.3113130  46.8829540  10.7416980  66.7408720
  46.2831530  10.8009540  65.9972640  47.0123440   9.8021960  66.8705570
  48.1230990   8.4834800  52.0778430  47.2923950   8.5511450  52.5485660
  48.3002820   9.3738920  51.7745290  47.5787450   5.2282280  54.5812630
  48.3406360   5.7978930  54.6872320  47.5941820   4.6609480  55.3520940
  31.0791790   3.7520210  58.8120290  30.4240630   3.4831850  58.1679990
  31.9169740   3.6424690  58.3622270  48.5847420   6.0832380  59.4254560
  48.9556250   5.2999700  59.0190530  49.2249350   6.7721480  59.2471860
  45.5681180   7.4668960  64.8384880  44.7541020   7.8966120  65.1010670
  45.9755380   8.0787370  64.2253930  47.6306620   5.5216650  51.7385150
  47.9055460   6.4295530  51.6104370  47.4417360   5.4579180  52.6747140
  47.5271960   3.4585640  56.7314580  47.1515560   2.6913570  56.2995870
  46.7975080   3.8408340  57.2189510  32.1167720   4.1372780  63.3523630
  32.4840760   4.0500180  64.2319650  31.5478540   3.3739330  63.2530490
  46.9171580   2.6057160  66.3654100  46.6857670   2.3769910  65.4652050
  47.1776130   3.5256710  66.3198990  46.9812640   1.7683000  63.5541370
  46.0315350   1.7346540  63.6686360  47.1625650   2.6783110  63.3191140
  45.6257230  12.2187560  58.3653150  46.2216300  11.8972130  57.6887570
  45.8835380  11.7459380  59.1566420  33.5319800   8.6505470  68.5143780
  33.4889430   8.2798380  69.3958240  33.6630810   9.5883040  68.6545600
  37.2325830  10.2065060  64.1153500  36.9917190  10.4739620  63.2284020
  38.1728470  10.3770790  64.1704360  48.4929990  12.2259440  64.9164140
  47.9988270  12.6228310  64.1991270  47.8843280  11.6008650  65.3101420
  33.3707830  11.5967720  65.6341560  32.7768150  11.4652420  66.3731600
  33.3631670  10.7605860  65.1683660  46.1769440  12.8682860  62.1950880
  45.7172410  13.6198670  61.8208900  45.5481900  12.1489330  62.1365680
  33.0020060   8.9626100  64.5849600  32.2754120   8.3431390  64.5175550
  33.0629210   9.3566710  63.7147680  36.6065160  11.1771100  61.3699010
  37.1230180  10.5658460  60.8447270  37.2562540  11.6799880  61.8610020
  39.3460660  12.0679590  62.1967990  39.6338470  11.8133890  61.3201000
  39.8583880  11.5156950  62.7873560  31.2850060  12.2800490  57.7946360
  31.1172100  11.6471170  58.4928250  30.4184570  12.4859890  57.4440550
  32.8912760  10.9733720  55.2396500  32.3660380  11.3541750  54.5358460
  32.8157340  11.5984490  55.9606210  39.4133020  12.9895690  69.5636190
  40.3400330  12.7539960  69.6072150  39.3983450  13.8167690  69.0822220
  35.4905730  12.9216100  54.1145750  36.2224550  12.6375380  53.5669640
  35.7499400  12.6829380  55.0045130  34.6520520   9.0380830  54.1192080
  34.0229400   9.5065930  54.6677910  34.7668350   8.1930050  54.5538270
  45.9810580  12.2165550  69.3877230  46.7735900  11.7214780  69.1803190
  46.2743730  12.8955690  69.9952840  42.1070240   3.0886490  40.2693280
  42.0264290   2.1741100  39.9984990  41.6934660   3.5853560  39.5632990
  40.2388280   4.8665510  42.1502550  39.4630380   4.3865950  42.4401120
  40.8901210   4.1871160  41.9758710  34.2554110   5.1785320  43.0278310
  33.4238990   4.9234030  43.4274820  34.8635090   5.2496090  43.7636230
  44.2595710   9.2725700  40.9301680  43.7977240   8.5012940  41.2588850
  45.0721260   9.2991770  41.4354130  34.2355370   9.2125410  43.2236330
  34.5383410   8.3223150  43.0446550  34.9798960   9.7695630  42.9958580
  30.6279070   2.7392860  42.6960400  31.1995180   1.9715060  42.6964040
  30.6280610   3.0381620  41.7867010  40.4859020  11.5583710  40.5505670
  39.8670460  12.0141210  39.9800110  41.3410800  11.7135170  40.1495370
  39.6797270   7.5422700  42.1572710  39.6105550   6.6012640  41.9961840
  40.4417130   7.6324110  42.7295280  41.3522370   6.4422950  37.9437580
  40.7339640   6.9072400  37.3800300  41.8645620   7.1350430  38.3607090
  36.2154130   5.9698820  44.6221180  35.8823510   6.5967740  45.2642250
  36.3920810   6.4960700  43.8422850  35.4273230   7.9379620  46.4370360
  36.0447230   8.6130700  46.1554810  34.5666350   8.3467600  46.3457860
  30.7205570   7.1279480  35.3177210  30.3433550   7.6166580  34.5862110
  30.9778640   7.8004760  35.9483740  46.3450820   9.4019030  44.3525000
  45.6614340  10.0718140  44.3441670  46.8845110   9.5999680  43.5869860
  45.1754980   7.9679380  38.1560350  45.0651310   7.0253710  38.2809770
  45.1723230   8.3295020  39.0423110  43.2795000   6.1493000  44.3952790
  43.6963790   5.9353110  43.5606250  44.0034820   6.4065790  44.9661410
  40.7175260   3.5944700  37.5122840  39.7904540   3.5282080  37.7411310
  40.8700080   4.5324830  37.3978080  47.2257100   4.5480220  44.4869030
  46.3975730   4.6173310  44.0119160  47.8207580   5.1334530  44.0184860
  44.7472550   5.1565000  38.0158090  44.1284970   4.8184550  37.3684390
  44.7297000   4.5124760  38.7237280  36.3231900   4.1209440  40.2942570
  35.9188900   3.4086690  39.7988470  36.4095020   3.7762680  41.1830610
  36.7913600   7.8077000  42.4581780  36.4941890   7.2022470  41.7789560
  37.7413420   7.8454310  42.3471140  44.8799210  11.3808870  46.1204880
  44.4029770  12.1881060  45.9277490  44.1961000  10.7287200  46.2731090
  35.8832030   7.5458690  49.1089580  34.9860560   7.7698660  49.3562980
  35.9084900   7.6693630  48.1600980  42.9237250   4.3951810  35.0230840
  43.3630530   3.5574240  34.8768660  43.6365670   5.0281210  35.1094980
  34.7103250   4.4172010  47.6846950  34.5711020   5.2894810  48.0534350
  33.8284610   4.0744820  47.5394890  41.0332630   9.3347880  38.9912080
  41.4728540  10.0772210  38.5767470  40.9719520   9.5774450  39.9151040
  36.5083600  10.3593710  49.8932100  36.4799030  10.7636660  49.0260530
  36.3448570   9.4304070  49.7303700  33.0236530   3.0154420  37.7949220
  32.9034130   3.7416510  37.1830490  32.7137420   2.2457330  37.3177130
  48.4598420  11.1420810  51.1896270  48.9358140  11.6203700  51.8685350
  49.0805580  11.0738300  50.4641770  30.6621900   6.1869560  43.6017860
  30.7402320   6.3218330  42.6573580  31.2763580   5.4785450  43.7945980
  31.9069530   7.8869750  40.0124040  31.4997610   8.0284340  39.1577640
  32.7982540   7.6029910  39.8095250  47.8631670   8.3333660  48.3496280
  47.9894730   8.0945540  47.4313460  47.9053050   7.5018200  48.8218360
  43.7002810  12.3217000  36.3475090  43.5403950  12.0319940  37.2456920
  43.5349520  11.5457130  35.8120320  36.1791190  12.1015530  38.1246710
  36.0033670  11.1851070  37.9114510  35.3246930  12.4602820  38.3644510
  43.4028940   9.8304560  34.9073090  42.7094100   9.8281850  34.2475370
  44.1451800   9.4063880  34.4767260  42.9678870  11.4567270  38.9821580
  43.4235820  10.6756650  39.2960200  43.3071390  12.1674090  39.5262760
  30.7181420   7.2283730  46.1412320  30.8812460   6.7589090  45.3231690
  31.1833870   6.7207290  46.8061160  41.7032180   2.7155720  43.6298850
  40.9713300   3.2242530  43.9788950  41.3056520   1.8985700  43.3287630
  37.2151220   2.7023140  34.4241400  36.6468120   2.2541390  33.7977310
  37.9240220   3.0615920  33.8906550  32.2920400   6.6035160  48.3008130
  31.9075190   5.9628830  48.8991090  32.6032590   7.3071280  48.8702860
  38.4417540   3.4511700  43.7816750  38.8087670   2.9770270  44.5278090
  38.2522600   4.3253270  44.1225090  36.2316910   2.4920340  46.1000960
  35.9273980   3.3712320  46.3251320  37.1863370   2.5520130  46.1358400
  34.7598700   6.6981330  36.6967810  33.9860960   6.1578950  36.5366530
  35.4893330   6.1787940  36.3585570  45.5186680   5.6946690  42.4894200
  46.2385800   6.1901980  42.0990310  45.3168500   5.0164580  41.8448070
  40.9005480   5.7655750  48.3763200  40.8342790   4.8451420  48.1220790
  40.2710620   5.8631190  49.0907840  34.8036100   6.3661710  40.3346620
  35.3214770   5.5629970  40.2803510  34.3520120   6.3040850  41.1763450
  39.6905600   7.6327990  35.6073920  40.0321300   8.3770220  35.1117240
  38.8618310   7.9459110  35.9698750  32.2880640   3.3323080  47.2472320
  31.9295580   3.9976930  47.8345660  31.9935200   2.5006630  47.6184940
  35.4893760   3.7907320  50.1311870  35.1893900   3.9364500  49.2339690
  36.2605000   3.2312610  50.0385260  40.8322210   8.5876320  48.1267000
  40.8466750   7.6557280  47.9085910  40.1247310   8.6736080  48.7656770
  45.9659280   2.7716140  34.3965610  45.8823000   3.2030360  33.5462050
  46.6853470   3.2314490  34.8292430  47.0433420   5.2283660  47.4735580
  46.3181610   5.8212440  47.2764970  47.5708880   5.2207200  46.6748950
  46.9946530   9.6258400  37.1247740  46.3522690   8.9714020  37.3991460
  46.6077190  10.0313490  36.3488410  42.5733010   6.9543830  40.9719430
  42.9256830   6.3571960  40.3120800  41.6895340   6.6288060  41.1427680
  38.6596290   7.7141520  38.3789840  39.3467420   8.2610730  38.7597430
  37.8728710   8.2582250  38.4139450  30.7988690   3.3314340  33.8706920
  31.6683540   3.6139140  34.1542840  30.3079010   4.1450210  33.7555730
  37.9623500   4.7187550  37.9915200  38.4186280   5.5292800  38.2175390
  37.6111710   4.4010690  38.8233690  41.5388190   8.2326240  43.9384950
  42.1810420   7.5319400  44.0517120  42.0637540   9.0124680  43.7581840
  45.3843910   8.5174860  33.6624090  45.1581490   7.8005300  34.2548730
  44.9940110   8.2687300  32.8245840  43.3125810   9.0321140  47.1421010
  43.6482050   9.6187830  47.8198930  42.3926150   8.9013850  47.3718800
  31.1659940  12.5441720  34.4368550  31.5257580  13.1431060  33.7825820
  31.0252280  13.0901610  35.2103580  44.9660160   6.4346800  35.3238250
  44.6781860   6.8959490  36.1116130  45.7612330   5.9744570  35.5922470
  31.1501800  10.8096580  48.9110950  31.2592920   9.8691320  48.7706340
  30.4982360  11.0751330  48.2624680  39.1414390   9.0812470  50.3109070
  38.8211260   8.3621710  50.8554760  38.4672750   9.7567540  50.3845130
  37.1828560   9.9272920  35.2542220  37.1738660  10.6602610  34.6386730
  36.2626920   9.6804500  35.3469180  32.7835200   5.1487810  35.9988980
  32.1763150   5.8886710  36.0084280  33.2584550   5.2387170  35.1727180
  40.1688160   9.9901160  33.9167410  40.2700140   9.7865150  32.9869390
  39.2689900   9.7359440  34.1215190  38.8106270  12.5087480  38.6115080
  39.0647770  12.4708870  37.6894450  37.8618750  12.3820810  38.6043330
  44.8158850   3.4279360  40.1873590  43.8748990   3.4429590  40.3621280
  45.1302920   2.6415320  40.6333890  34.7940490   5.1098960  33.7477550
  35.5603760   4.9980320  34.3102980  34.8715180   4.4136930  33.0954320
  34.2901960  12.6919420  41.5344980  35.0264440  12.1434880  41.8053550
  34.6742880  13.5575430  41.3950970  31.1747440   8.7592990  37.4086490
  30.2487220   9.0014130  37.3991900  31.6403870   9.5867250  37.2871240
  33.2960240  11.8765490  50.7230560  34.0972970  12.1977540  51.1365960
  32.7812060  11.5161070  51.4450470  37.4004270  11.8649730  33.3570550
  38.1932880  12.1538560  32.9052340  36.8808620  11.4341900  32.6783030
  42.1324870   7.9845360  50.6705970  41.5263030   8.0076960  49.9301720
  41.8278980   7.2528400  51.2073220  43.5625240  11.7125650  49.2815380
  44.5146990  11.6283670  49.2315620  43.4153460  12.3767360  49.9549170
  46.4534440  11.0919860  34.7807290  46.1675950  10.6785000  33.9661470
  46.2553990  12.0207570  34.6607810  31.0158050   4.3638950  49.6666610
  31.5197070   3.7846230  50.2382840  30.2765470   4.6479180  50.2042980
  37.9181670   7.0853140  33.2212900  37.8132310   6.4705490  33.9474280
  37.7505890   6.5619030  32.4375910  38.0695990   5.7709940  49.2002130
  37.3041660   6.3394940  49.1156800  38.2511950   5.4786150  48.3070360
  41.1584400   6.1473170  33.8254890  40.6094500   6.5942470  34.4697630
  41.7803660   5.6422420  34.3492560  45.2119340   7.5015270  49.7577150
  45.9528810   7.8391030  49.2544610  44.4492020   7.6707330  49.2046920
  33.0481130   2.5068540  50.5616680  33.0886470   2.2082410  51.4701910
  33.9026630   2.9076150  50.4024200  36.8259520   5.1064090  35.7220190
  37.2475940   4.9403960  36.5651580  36.9510360   4.2964320  35.2275330
  39.3387160   4.1301700  32.9697290  39.8592820   3.4150720  32.6038440
  39.9855560   4.7687570  33.2697800  43.8865000   5.5530100  48.2932360
  44.3006020   5.7075180  49.1422780  42.9516000   5.6785320  48.4558140
  44.3587170   2.8926260  50.2971510  44.9407940   2.1378580  50.2091990
  44.5348940   3.4233700  49.5202990  38.6480230   5.5050580  46.2628290
  39.0668340   6.3483310  46.0904530  37.7288860   5.6422620  46.0335070
  40.9844130   3.2366760  47.6466130  41.1040340   2.6407900  48.3860970
  41.8438130   3.2736450  47.2267430  43.3232030   3.7903950  46.2228640
  42.7967250   4.3146570  45.6193780  43.6663370   4.4231340  46.8538370
  36.4987650  11.8103590  47.3786020  35.9608740  12.5349650  47.0594720
  36.7521610  11.3333930  46.5883360  39.9035190  12.2113310  35.2599030
  40.7985980  12.5498280  35.2817790  39.9352820  11.4892720  34.6323310
  33.5431350   7.5840360  33.4886030  33.9806220   8.1270030  34.1443610
  34.0279080   6.7587310  33.4982370  30.7577150  10.3729390  40.9406290
  31.0880160   9.5050450  40.7084930  31.1868150  10.5787910  41.7711250
  35.3539070   8.7038400  38.6008260  35.0534610   8.5803370  39.5012170
  35.2476560   7.8446990  38.1923990  31.2467360  11.2399980  43.6787920
  30.8098350  11.4200780  44.5112070  31.8145040  11.9974600  43.5369640
  46.8829540  10.7416980  47.9665230  46.2831530  10.8009540  47.2229150
  47.0123440   9.8021960  48.0962080  48.1230990   8.4834800  33.3034940
  47.2923950   8.5511450  33.7742170  48.3002820   9.3738920  33.0001800
  47.5787450   5.2282280  35.8069140  48.3406360   5.7978930  35.9128830
  47.5941820   4.6609480  36.5777450  31.0791790   3.7520210  40.0376800
  30.4240630   3.4831850  39.3936500  31.9169740   3.6424690  39.5878780
  48.5847420   6.0832380  40.6511070  48.9556250   5.2999700  40.2447040
  49.2249350   6.7721480  40.4728370  45.5681180   7.4668960  46.0641390
  44.7541020   7.8966120  46.3267180  45.9755380   8.0787370  45.4510440
  47.6306620   5.5216650  32.9641660  47.9055460   6.4295530  32.8360880
  47.4417360   5.4579180  33.9003650  47.5271960   3.4585640  37.9571090
  47.1515560   2.6913570  37.5252380  46.7975080   3.8408340  38.4446020
  32.1167720   4.1372780  44.5780140  32.4840760   4.0500180  45.4576160
  31.5478540   3.3739330  44.4787000  46.9171580   2.6057160  47.5910610
  46.6857670   2.3769910  46.6908560  47.1776130   3.5256710  47.5455500
  46.9812640   1.7683000  44.7797880  46.0315350   1.7346540  44.8942870
  47.1625650   2.6783110  44.5447650  33.5319800   8.6505470  49.7400290
  33.4889430   8.2798380  50.6214750  33.6630810   9.5883040  49.8802110
  37.2325830  10.2065060  45.3410010  36.9917190  10.4739620  44.4540530
  38.1728470  10.3770790  45.3960870  48.4929990  12.2259440  46.1420650
  47.9988270  12.6228310  45.4247780  47.8843280  11.6008650  46.5357930
  33.3707830  11.5967720  46.8598070  32.7768150  11.4652420  47.5988110
  33.3631670  10.7605860  46.3940170  33.0020060   8.9626100  45.8106110
  32.2754120   8.3431390  45.7432060  33.0629210   9.3566710  44.9404190
  36.6065160  11.1771100  42.5955520  37.1230180  10.5658460  42.0703780
  37.2562540  11.6799880  43.0866530  31.2850060  12.2800490  39.0202870
  31.1172100  11.6471170  39.7184760  30.4184570  12.4859890  38.6697060
  32.8912760  10.9733720  36.4653010  32.3660380  11.3541750  35.7614970
  32.8157340  11.5984490  37.1862720  39.4133020  12.9895690  50.7892700
  40.3400330  12.7539960  50.8328660  39.3983450  13.8167690  50.3078730
  47.6478080  12.5321260  37.7866950  47.8230270  11.8459000  37.1427870
  46.9499650  13.0568310  37.3943620  35.4905730  12.9216100  35.3402260
  36.2224550  12.6375380  34.7926150  35.7499400  12.6829380  36.2301640
  34.6520520   9.0380830  35.3448590  34.0229400   9.5065930  35.8934420
  34.7668350   8.1930050  35.7794780  45.9810580  12.2165550  50.6133740
  46.7735900  11.7214780  50.4059700  46.2743730  12.8955690  51.2209350
  42.1070240   3.0886490  21.4949790  42.0264290   2.1741100  21.2241500
  41.6934660   3.5853560  20.7889500  40.2388280   4.8665510  23.3759060
  39.4630380   4.3865950  23.6657630  40.8901210   4.1871160  23.2015220
  34.2554110   5.1785320  24.2534820  33.4238990   4.9234030  24.6531330
  34.8635090   5.2496090  24.9892740  44.2595710   9.2725700  22.1558190
  43.7977240   8.5012940  22.4845360  45.0721260   9.2991770  22.6610640
  34.2355370   9.2125410  24.4492840  34.5383410   8.3223150  24.2703060
  34.9798960   9.7695630  24.2215090  30.6279070   2.7392860  23.9216910
  31.1995180   1.9715060  23.9220550  30.6280610   3.0381620  23.0123520
  40.4859020  11.5583710  21.7762180  39.8670460  12.0141210  21.2056620
  41.3410800  11.7135170  21.3751880  39.6797270   7.5422700  23.3829220
  39.6105550   6.6012640  23.2218350  40.4417130   7.6324110  23.9551790
  41.3522370   6.4422950  19.1694090  40.7339640   6.9072400  18.6056810
  41.8645620   7.1350430  19.5863600  36.2154130   5.9698820  25.8477690
  35.8823510   6.5967740  26.4898760  36.3920810   6.4960700  25.0679360
  35.4273230   7.9379620  27.6626870  36.0447230   8.6130700  27.3811320
  34.5666350   8.3467600  27.5714370  30.7205570   7.1279480  16.5433720
  30.3433550   7.6166580  15.8118620  30.9778640   7.8004760  17.1740250
  46.3450820   9.4019030  25.5781510  45.6614340  10.0718140  25.5698180
  46.8845110   9.5999680  24.8126370  43.8809560  11.2463160  24.2926690
  43.8936720  10.8425450  23.4248950  43.3284780  12.0210450  24.1888120
  45.1754980   7.9679380  19.3816860  45.0651310   7.0253710  19.5066280
  45.1723230   8.3295020  20.2679620  43.2795000   6.1493000  25.6209300
  43.6963790   5.9353110  24.7862760  44.0034820   6.4065790  26.1917920
  40.7175260   3.5944700  18.7379350  39.7904540   3.5282080  18.9667820
  40.8700080   4.5324830  18.6234590  47.2257100   4.5480220  25.7125540
  46.3975730   4.6173310  25.2375670  47.8207580   5.1334530  25.2441370
  44.7472550   5.1565000  19.2414600  44.1284970   4.8184550  18.5940900
  44.7297000   4.5124760  19.9493790  36.3231900   4.1209440  21.5199080
  35.9188900   3.4086690  21.0244980  36.4095020   3.7762680  22.4087120
  36.7913600   7.8077000  23.6838290  36.4941890   7.2022470  23.0046070
  37.7413420   7.8454310  23.5727650  44.8799210  11.3808870  27.3461390
  44.4029770  12.1881060  27.1534000  44.1961000  10.7287200  27.4987600
  35.8832030   7.5458690  30.3346090  34.9860560   7.7698660  30.5819490
  35.9084900   7.6693630  29.3857490  42.9237250   4.3951810  16.2487350
  43.3630530   3.5574240  16.1025170  43.6365670   5.0281210  16.3351490
  34.7103250   4.4172010  28.9103460  34.5711020   5.2894810  29.2790860
  33.8284610   4.0744820  28.7651400  41.0332630   9.3347880  20.2168590
  41.4728540  10.0772210  19.8023980  40.9719520   9.5774450  21.1407550
  36.5083600  10.3593710  31.1188610  36.4799030  10.7636660  30.2517040
  36.3448570   9.4304070  30.9560210  33.0236530   3.0154420  19.0205730
  32.9034130   3.7416510  18.4087000  32.7137420   2.2457330  18.5433640
  48.4598420  11.1420810  32.4152780  48.9358140  11.6203700  33.0941860
  49.0805580  11.0738300  31.6898280  30.6621900   6.1869560  24.8274370
  30.7402320   6.3218330  23.8830090  31.2763580   5.4785450  25.0202490
  31.9069530   7.8869750  21.2380550  31.4997610   8.0284340  20.3834150
  32.7982540   7.6029910  21.0351760  47.8631670   8.3333660  29.5752790
  47.9894730   8.0945540  28.6569970  47.9053050   7.5018200  30.0474870
  41.7248410  12.0361660  28.1447600  42.2393080  11.9469670  28.9470030
  40.8817490  12.3821360  28.4375510  43.7002810  12.3217000  17.5731600
  43.5403950  12.0319940  18.4713430  43.5349520  11.5457130  17.0376830
  36.1791190  12.1015530  19.3503220  36.0033670  11.1851070  19.1371020
  35.3246930  12.4602820  19.5901020  43.4028940   9.8304560  16.1329600
  42.7094100   9.8281850  15.4731880  44.1451800   9.4063880  15.7023770
  42.9678870  11.4567270  20.2078090  43.4235820  10.6756650  20.5216710
  43.3071390  12.1674090  20.7519270  30.7181420   7.2283730  27.3668830
  30.8812460   6.7589090  26.5488200  31.1833870   6.7207290  28.0317670
  41.7032180   2.7155720  24.8555360  40.9713300   3.2242530  25.2045460
  41.3056520   1.8985700  24.5544140  37.2151220   2.7023140  15.6497910
  36.6468120   2.2541390  15.0233820  37.9240220   3.0615920  15.1163060
  32.2920400   6.6035160  29.5264640  31.9075190   5.9628830  30.1247600
  32.6032590   7.3071280  30.0959370  38.4417540   3.4511700  25.0073260
  38.8087670   2.9770270  25.7534600  38.2522600   4.3253270  25.3481600
  36.2316910   2.4920340  27.3257470  35.9273980   3.3712320  27.5507830
  37.1863370   2.5520130  27.3614910  34.7598700   6.6981330  17.9224320
  33.9860960   6.1578950  17.7623040  35.4893330   6.1787940  17.5842080
  45.5186680   5.6946690  23.7150710  46.2385800   6.1901980  23.3246820
  45.3168500   5.0164580  23.0704580  40.9005480   5.7655750  29.6019710
  40.8342790   4.8451420  29.3477300  40.2710620   5.8631190  30.3164350
  34.8036100   6.3661710  21.5603130  35.3214770   5.5629970  21.5060020
  34.3520120   6.3040850  22.4019960  39.6905600   7.6327990  16.8330430
  40.0321300   8.3770220  16.3373750  38.8618310   7.9459110  17.1955260
  32.2880640   3.3323080  28.4728830  31.9295580   3.9976930  29.0602170
  31.9935200   2.5006630  28.8441450  35.4893760   3.7907320  31.3568380
  35.1893900   3.9364500  30.4596200  36.2605000   3.2312610  31.2641770
  40.8322210   8.5876320  29.3523510  40.8466750   7.6557280  29.1342420
  40.1247310   8.6736080  29.9913280  45.9659280   2.7716140  15.6222120
  45.8823000   3.2030360  14.7718560  46.6853470   3.2314490  16.0548940
  47.0433420   5.2283660  28.6992090  46.3181610   5.8212440  28.5021480
  47.5708880   5.2207200  27.9005460  46.9946530   9.6258400  18.3504250
  46.3522690   8.9714020  18.6247970  46.6077190  10.0313490  17.5744920
  42.5733010   6.9543830  22.1975940  42.9256830   6.3571960  21.5377310
  41.6895340   6.6288060  22.3684190  38.6596290   7.7141520  19.6046350
  39.3467420   8.2610730  19.9853940  37.8728710   8.2582250  19.6395960
  30.7988690   3.3314340  15.0963430  31.6683540   3.6139140  15.3799350
  30.3079010   4.1450210  14.9812240  37.9623500   4.7187550  19.2171710
  38.4186280   5.5292800  19.4431900  37.6111710   4.4010690  20.0490200
  40.2656110  10.2293890  26.4464010  40.9098330  10.4353270  27.1237430
  40.6285550   9.4682290  25.9934860  41.5388190   8.2326240  25.1641460
  42.1810420   7.5319400  25.2773630  42.0637540   9.0124680  24.9838350
  45.3843910   8.5174860  14.8880600  45.1581490   7.8005300  15.4805240
  44.9940110   8.2687300  14.0502350  43.3125810   9.0321140  28.3677520
  43.6482050   9.6187830  29.0455440  42.3926150   8.9013850  28.5975310
  31.1659940  12.5441720  15.6625060  31.5257580  13.1431060  15.0082330
  31.0252280  13.0901610  16.4360090  44.9660160   6.4346800  16.5494760
  44.6781860   6.8959490  17.3372640  45.7612330   5.9744570  16.8178980
  31.1501800  10.8096580  30.1367460  31.2592920   9.8691320  29.9962850
  30.4982360  11.0751330  29.4881190  39.1414390   9.0812470  31.5365580
  38.8211260   8.3621710  32.0811270  38.4672750   9.7567540  31.6101640
  37.1828560   9.9272920  16.4798730  37.1738660  10.6602610  15.8643240
  36.2626920   9.6804500  16.5725690  32.7835200   5.1487810  17.2245490
  32.1763150   5.8886710  17.2340790  33.2584550   5.2387170  16.3983690
  40.1688160   9.9901160  15.1423920  40.2700140   9.7865150  14.2125900
  39.2689900   9.7359440  15.3471700  38.8106270  12.5087480  19.8371590
  39.0647770  12.4708870  18.9150960  37.8618750  12.3820810  19.8299840
  44.8158850   3.4279360  21.4130100  43.8748990   3.4429590  21.5877790
  45.1302920   2.6415320  21.8590400  34.7940490   5.1098960  14.9734060
  35.5603760   4.9980320  15.5359490  34.8715180   4.4136930  14.3210830
  46.8184430  10.5988210  23.0884360  46.9431850  11.4219380  23.5608170
  47.6849990  10.3878940  22.7408510  34.2901960  12.6919420  22.7601490
  35.0264440  12.1434880  23.0310060  34.6742880  13.5575430  22.6207480
  31.1747440   8.7592990  18.6343000  30.2487220   9.0014130  18.6248410
  31.6403870   9.5867250  18.5127750  33.2960240  11.8765490  31.9487070
  34.0972970  12.1977540  32.3622470  32.7812060  11.5161070  32.6706980
  37.4004270  11.8649730  14.5827060  38.1932880  12.1538560  14.1308850
  36.8808620  11.4341900  13.9039540  42.1324870   7.9845360  31.8962480
  41.5263030   8.0076960  31.1558230  41.8278980   7.2528400  32.4329730
  43.5625240  11.7125650  30.5071890  44.5146990  11.6283670  30.4572130
  43.4153460  12.3767360  31.1805680  46.4534440  11.0919860  16.0063800
  46.1675950  10.6785000  15.1917980  46.2553990  12.0207570  15.8864320
  31.0158050   4.3638950  30.8923120  31.5197070   3.7846230  31.4639350
  30.2765470   4.6479180  31.4299490  37.9181670   7.0853140  14.4469410
  37.8132310   6.4705490  15.1730790  37.7505890   6.5619030  13.6632420
  38.0695990   5.7709940  30.4258640  37.3041660   6.3394940  30.3413310
  38.2511950   5.4786150  29.5326870  41.1584400   6.1473170  15.0511400
  40.6094500   6.5942470  15.6954140  41.7803660   5.6422420  15.5749070
  45.2119340   7.5015270  30.9833660  45.9528810   7.8391030  30.4801120
  44.4492020   7.6707330  30.4303430  33.0481130   2.5068540  31.7873190
  33.0886470   2.2082410  32.6958420  33.9026630   2.9076150  31.6280710
  36.8259520   5.1064090  16.9476700  37.2475940   4.9403960  17.7908090
  36.9510360   4.2964320  16.4531840  39.3387160   4.1301700  14.1953800
  39.8592820   3.4150720  13.8294950  39.9855560   4.7687570  14.4954310
  43.8865000   5.5530100  29.5188870  44.3006020   5.7075180  30.3679290
  42.9516000   5.6785320  29.6814650  44.3587170   2.8926260  31.5228020
  44.9407940   2.1378580  31.4348500  44.5348940   3.4233700  30.7459500
  38.6480230   5.5050580  27.4884800  39.0668340   6.3483310  27.3161040
  37.7288860   5.6422620  27.2591580  40.9844130   3.2366760  28.8722640
  41.1040340   2.6407900  29.6117480  41.8438130   3.2736450  28.4523940
  43.3232030   3.7903950  27.4485150  42.7967250   4.3146570  26.8450290
  43.6663370   4.4231340  28.0794880  36.4987650  11.8103590  28.6042530
  35.9608740  12.5349650  28.2851230  36.7521610  11.3333930  27.8139870
  39.3549860  13.0454800  28.8629180  39.2808560  13.9489940  29.1701550
  38.4528700  12.7266700  28.8351250  39.9035190  12.2113310  16.4855540
  40.7985980  12.5498280  16.5074300  39.9352820  11.4892720  15.8579820
  33.5431350   7.5840360  14.7142540  33.9806220   8.1270030  15.3700120
  34.0279080   6.7587310  14.7238880  30.7577150  10.3729390  22.1662800
  31.0880160   9.5050450  21.9341440  31.1868150  10.5787910  22.9967760
  35.3539070   8.7038400  19.8264770  35.0534610   8.5803370  20.7268680
  35.2476560   7.8446990  19.4180500  31.2467360  11.2399980  24.9044430
  30.8098350  11.4200780  25.7368580  31.8145040  11.9974600  24.7626150
  46.8829540  10.7416980  29.1921740  46.2831530  10.8009540  28.4485660
  47.0123440   9.8021960  29.3218590  48.1230990   8.4834800  14.5291450
  47.2923950   8.5511450  14.9998680  48.3002820   9.3738920  14.2258310
  47.5787450   5.2282280  17.0325650  48.3406360   5.7978930  17.1385340
  47.5941820   4.6609480  17.8033960  31.0791790   3.7520210  21.2633310
  30.4240630   3.4831850  20.6193010  31.9169740   3.6424690  20.8135290
  48.5847420   6.0832380  21.8767580  48.9556250   5.2999700  21.4703550
  49.2249350   6.7721480  21.6984880  45.5681180   7.4668960  27.2897900
  44.7541020   7.8966120  27.5523690  45.9755380   8.0787370  26.6766950
  47.6306620   5.5216650  14.1898170  47.9055460   6.4295530  14.0617390
  47.4417360   5.4579180  15.1260160  47.5271960   3.4585640  19.1827600
  47.1515560   2.6913570  18.7508890  46.7975080   3.8408340  19.6702530
  32.1167720   4.1372780  25.8036650  32.4840760   4.0500180  26.6832670
  31.5478540   3.3739330  25.7043510  46.9171580   2.6057160  28.8167120
  46.6857670   2.3769910  27.9165070  47.1776130   3.5256710  28.7712010
  46.9812640   1.7683000  26.0054390  46.0315350   1.7346540  26.1199380
  47.1625650   2.6783110  25.7704160  45.6257230  12.2187560  20.8166170
  46.2216300  11.8972130  20.1400590  45.8835380  11.7459380  21.6079440
  33.5319800   8.6505470  30.9656800  33.4889430   8.2798380  31.8471260
  33.6630810   9.5883040  31.1058620  37.2325830  10.2065060  26.5666520
  36.9917190  10.4739620  25.6797040  38.1728470  10.3770790  26.6217380
  48.4929990  12.2259440  27.3677160  47.9988270  12.6228310  26.6504290
  47.8843280  11.6008650  27.7614440  33.3707830  11.5967720  28.0854580
  32.7768150  11.4652420  28.8244620  33.3631670  10.7605860  27.6196680
  46.1769440  12.8682860  24.6463900  45.7172410  13.6198670  24.2721920
  45.5481900  12.1489330  24.5878700  33.0020060   8.9626100  27.0362620
  32.2754120   8.3431390  26.9688570  33.0629210   9.3566710  26.1660700
  36.6065160  11.1771100  23.8212030  37.1230180  10.5658460  23.2960290
  37.2562540  11.6799880  24.3123040  39.3460660  12.0679590  24.6481010
  39.6338470  11.8133890  23.7714020  39.8583880  11.5156950  25.2386580
  31.2850060  12.2800490  20.2459380  31.1172100  11.6471170  20.9441270
  30.4184570  12.4859890  19.8953570  32.8912760  10.9733720  17.6909520
  32.3660380  11.3541750  16.9871480  32.8157340  11.5984490  18.4119230
  39.4133020  12.9895690  32.0149210  40.3400330  12.7539960  32.0585170
  39.3983450  13.8167690  31.5335240  47.6478080  12.5321260  19.0123460
  47.8230270  11.8459000  18.3684380  46.9499650  13.0568310  18.6200130
  35.4905730  12.9216100  16.5658770  36.2224550  12.6375380  16.0182660
  35.7499400  12.6829380  17.4558150  34.6520520   9.0380830  16.5705100
  34.0229400   9.5065930  17.1190930  34.7668350   8.1930050  17.0051290
  45.9810580  12.2165550  31.8390250  46.7735900  11.7214780  31.6316210
  46.2743730  12.8955690  32.4465860  42.1070240   3.0886490   2.7206300
  42.0264290   2.1741100   2.4498010  41.6934660   3.5853560   2.0146010
  40.2388280   4.8665510   4.6015570  39.4630380   4.3865950   4.8914140
  40.8901210   4.1871160   4.4271730  34.2554110   5.1785320   5.4791330
  33.4238990   4.9234030   5.8787840  34.8635090   5.2496090   6.2149250
  44.2595710   9.2725700   3.3814700  43.7977240   8.5012940   3.7101870
  45.0721260   9.2991770   3.8867150  34.2355370   9.2125410   5.6749350
  34.5383410   8.3223150   5.4959570  34.9798960   9.7695630   5.4471600
  30.6279070   2.7392860   5.1473420  31.1995180   1.9715060   5.1477060
  30.6280610   3.0381620   4.2380030  40.4859020  11.5583710   3.0018690
  39.8670460  12.0141210   2.4313130  41.3410800  11.7135170   2.6008390
  39.6797270   7.5422700   4.6085730  39.6105550   6.6012640   4.4474860
  40.4417130   7.6324110   5.1808300  36.2154130   5.9698820   7.0734200
  35.8823510   6.5967740   7.7155270  36.3920810   6.4960700   6.2935870
  35.4273230   7.9379620   8.8883380  36.0447230   8.6130700   8.6067830
  34.5666350   8.3467600   8.7970880  46.3450820   9.4019030   6.8038020
  45.6614340  10.0718140   6.7954690  46.8845110   9.5999680   6.0382880
  43.8809560  11.2463160   5.5183200  43.8936720  10.8425450   4.6505460
  43.3284780  12.0210450   5.4144630  43.2795000   6.1493000   6.8465810
  43.6963790   5.9353110   6.0119270  44.0034820   6.4065790   7.4174430
  47.2257100   4.5480220   6.9382050  46.3975730   4.6173310   6.4632180
  47.8207580   5.1334530   6.4697880  36.3231900   4.1209440   2.7455590
  35.9188900   3.4086690   2.2501490  36.4095020   3.7762680   3.6343630
  36.7913600   7.8077000   4.9094800  36.4941890   7.2022470   4.2302580
  37.7413420   7.8454310   4.7984160  44.8799210  11.3808870   8.5717900
  44.4029770  12.1881060   8.3790510  44.1961000  10.7287200   8.7244110
  35.8832030   7.5458690  11.5602600  34.9860560   7.7698660  11.8076000
  35.9084900   7.6693630  10.6114000  34.7103250   4.4172010  10.1359970
  34.5711020   5.2894810  10.5047370  33.8284610   4.0744820   9.9907910
  36.5083600  10.3593710  12.3445120  36.4799030  10.7636660  11.4773550
  36.3448570   9.4304070  12.1816720  48.4598420  11.1420810  13.6409290
  48.9358140  11.6203700  14.3198370  49.0805580  11.0738300  12.9154790
  30.6621900   6.1869560   6.0530880  30.7402320   6.3218330   5.1086600
  31.2763580   5.4785450   6.2459000  47.8631670   8.3333660  10.8009300
  47.9894730   8.0945540   9.8826480  47.9053050   7.5018200  11.2731380
  41.7248410  12.0361660   9.3704110  42.2393080  11.9469670  10.1726540
  40.8817490  12.3821360   9.6632020  30.7181420   7.2283730   8.5925340
  30.8812460   6.7589090   7.7744710  31.1833870   6.7207290   9.2574180
  41.7032180   2.7155720   6.0811870  40.9713300   3.2242530   6.4301970
  41.3056520   1.8985700   5.7800650  32.2920400   6.6035160  10.7521150
  31.9075190   5.9628830  11.3504110  32.6032590   7.3071280  11.3215880
  38.4417540   3.4511700   6.2329770  38.8087670   2.9770270   6.9791110
  38.2522600   4.3253270   6.5738110  36.2316910   2.4920340   8.5513980
  35.9273980   3.3712320   8.7764340  37.1863370   2.5520130   8.5871420
  45.5186680   5.6946690   4.9407220  46.2385800   6.1901980   4.5503330
  45.3168500   5.0164580   4.2961090  40.9005480   5.7655750  10.8276220
  40.8342790   4.8451420  10.5733810  40.2710620   5.8631190  11.5420860
  34.8036100   6.3661710   2.7859640  35.3214770   5.5629970   2.7316530
  34.3520120   6.3040850   3.6276470  32.2880640   3.3323080   9.6985340
  31.9295580   3.9976930  10.2858680  31.9935200   2.5006630  10.0697960
  35.4893760   3.7907320  12.5824890  35.1893900   3.9364500  11.6852710
  36.2605000   3.2312610  12.4898280  40.8322210   8.5876320  10.5780020
  40.8466750   7.6557280  10.3598930  40.1247310   8.6736080  11.2169790
  47.0433420   5.2283660   9.9248600  46.3181610   5.8212440   9.7277990
  47.5708880   5.2207200   9.1261970  42.5733010   6.9543830   3.4232450
  42.9256830   6.3571960   2.7633820  41.6895340   6.6288060   3.5940700
  40.2656110  10.2293890   7.6720520  40.9098330  10.4353270   8.3493940
  40.6285550   9.4682290   7.2191370  41.5388190   8.2326240   6.3897970
  42.1810420   7.5319400   6.5030140  42.0637540   9.0124680   6.2094860
  43.3125810   9.0321140   9.5934030  43.6482050   9.6187830  10.2711950
  42.3926150   8.9013850   9.8231820  31.1501800  10.8096580  11.3623970
  31.2592920   9.8691320  11.2219360  30.4982360  11.0751330  10.7137700
  39.1414390   9.0812470  12.7622090  38.8211260   8.3621710  13.3067780
  38.4672750   9.7567540  12.8358150  44.8158850   3.4279360   2.6386610
  43.8748990   3.4429590   2.8134300  45.1302920   2.6415320   3.0846910
  46.8184430  10.5988210   4.3140870  46.9431850  11.4219380   4.7864680
  47.6849990  10.3878940   3.9665020  34.2901960  12.6919420   3.9858000
  35.0264440  12.1434880   4.2566570  34.6742880  13.5575430   3.8463990
  33.2960240  11.8765490  13.1743580  34.0972970  12.1977540  13.5878980
  32.7812060  11.5161070  13.8963490  42.1324870   7.9845360  13.1218990
  41.5263030   8.0076960  12.3814740  41.8278980   7.2528400  13.6586240
  43.5625240  11.7125650  11.7328400  44.5146990  11.6283670  11.6828640
  43.4153460  12.3767360  12.4062190  31.0158050   4.3638950  12.1179630
  31.5197070   3.7846230  12.6895860  30.2765470   4.6479180  12.6556000
  38.0695990   5.7709940  11.6515150  37.3041660   6.3394940  11.5669820
  38.2511950   5.4786150  10.7583380  45.2119340   7.5015270  12.2090170
  45.9528810   7.8391030  11.7057630  44.4492020   7.6707330  11.6559940
  33.0481130   2.5068540  13.0129700  33.0886470   2.2082410  13.9214930
  33.9026630   2.9076150  12.8537220  43.8865000   5.5530100  10.7445380
  44.3006020   5.7075180  11.5935800  42.9516000   5.6785320  10.9071160
  44.3587170   2.8926260  12.7484530  44.9407940   2.1378580  12.6605010
  44.5348940   3.4233700  11.9716010  38.6480230   5.5050580   8.7141310
  39.0668340   6.3483310   8.5417550  37.7288860   5.6422620   8.4848090
  40.9844130   3.2366760  10.0979150  41.1040340   2.6407900  10.8373990
  41.8438130   3.2736450   9.6780450  43.3232030   3.7903950   8.6741660
  42.7967250   4.3146570   8.0706800  43.6663370   4.4231340   9.3051390
  36.4987650  11.8103590   9.8299040  35.9608740  12.5349650   9.5107740
  36.7521610  11.3333930   9.0396380  39.3549860  13.0454800  10.0885690
  39.2808560  13.9489940  10.3958060  38.4528700  12.7266700  10.0607760
  30.7577150  10.3729390   3.3919310  31.0880160   9.5050450   3.1597950
  31.1868150  10.5787910   4.2224270  31.2467360  11.2399980   6.1300940
  30.8098350  11.4200780   6.9625090  31.8145040  11.9974600   5.9882660
  46.8829540  10.7416980  10.4178250  46.2831530  10.8009540   9.6742170
  47.0123440   9.8021960  10.5475100  31.0791790   3.7520210   2.4889820
  30.4240630   3.4831850   1.8449520  31.9169740   3.6424690   2.0391800
  48.5847420   6.0832380   3.1024090  48.9556250   5.2999700   2.6960060
  49.2249350   6.7721480   2.9241390  45.5681180   7.4668960   8.5154410
  44.7541020   7.8966120   8.7780200  45.9755380   8.0787370   7.9023460
  32.1167720   4.1372780   7.0293160  32.4840760   4.0500180   7.9089180
  31.5478540   3.3739330   6.9300020  46.9171580   2.6057160  10.0423630
  46.6857670   2.3769910   9.1421580  47.1776130   3.5256710   9.9968520
  46.9812640   1.7683000   7.2310900  46.0315350   1.7346540   7.3455890
  47.1625650   2.6783110   6.9960670  33.5319800   8.6505470  12.1913310
  33.4889430   8.2798380  13.0727770  33.6630810   9.5883040  12.3315130
  37.2325830  10.2065060   7.7923030  36.9917190  10.4739620   6.9053550
  38.1728470  10.3770790   7.8473890  48.4929990  12.2259440   8.5933670
  47.9988270  12.6228310   7.8760800  47.8843280  11.6008650   8.9870950
  33.3707830  11.5967720   9.3111090  32.7768150  11.4652420  10.0501130
  33.3631670  10.7605860   8.8453190  46.1769440  12.8682860   5.8720410
  45.7172410  13.6198670   5.4978430  45.5481900  12.1489330   5.8135210
  33.0020060   8.9626100   8.2619130  32.2754120   8.3431390   8.1945080
  33.0629210   9.3566710   7.3917210  36.6065160  11.1771100   5.0468540
  37.1230180  10.5658460   4.5216800  37.2562540  11.6799880   5.5379550
  39.3460660  12.0679590   5.8737520  39.6338470  11.8133890   4.9970530
  39.8583880  11.5156950   6.4643090  39.4133020  12.9895690  13.2405720
  40.3400330  12.7539960  13.2841680  39.3983450  13.8167690  12.7591750
  45.9810580  12.2165550  13.0646760  46.7735900  11.7214780  12.8572720
  46.2743730  12.8955690  13.6722370  23.3326750  78.1860450  77.8180260
  23.2520800  77.2715060  77.5471970  22.9191170  78.6827520  77.1119970
  21.4644790  79.9639470  79.6989530  20.6886890  79.4839910  79.9888100
  22.1157720  79.2845120  79.5245690  15.4810620  80.2759280  80.5765290
  14.6495500  80.0207990  80.9761800  16.0891600  80.3470050  81.3123210
  13.8902570  75.2361170  74.3607680  13.0019270  75.5777140  74.2587560
  14.1743760  75.0361490  73.4688510  11.8535580  77.8366820  80.2447380
  12.4251690  77.0689020  80.2451020  11.8537120  78.1355580  79.3353990
  21.9358950  75.4467040  79.9328620  22.3123770  74.5738920  79.8202290
  21.8378460  75.7825740  79.0419060  16.0663960  73.8192670  75.3946060
  16.1730710  74.7196400  75.7014820  15.1556320  73.7710640  75.1040710
  25.7183070  72.9417480  76.8656960  26.5392690  72.4514050  76.9082440
  25.7517150  73.5315140  77.6188800  13.7147120  75.7411680  80.6398650
  14.3957230  76.0050050  81.2586050  13.3995170  74.9012550  80.9736660
  17.9071690  76.7879040  79.7271240  18.4149910  77.2860010  80.3676260
  18.4384930  76.0114240  79.5510600  25.9544550  74.8817860  79.6384500
  25.2500120  75.1702750  80.2187610  26.3156710  75.6917970  79.2784060
  29.0231470  74.3272650  80.0293710  28.0756380  74.3611630  80.1609140
  29.3481460  75.1411600  80.4143070  19.5551010  70.6269830  78.3249700
  19.8625990  70.0716720  77.6085200  18.6251710  70.7614290  78.1422690
  21.9431770  78.6918660  75.0609820  21.0161050  78.6256040  75.2898290
  22.0956590  79.6298790  74.9465060  21.9300850  74.9635660  72.0576980
  20.9904520  75.1249620  72.1429440  22.2484110  75.6821340  71.5112970
  28.4513610  79.6454180  82.0356010  27.6232240  79.7147270  81.5606140
  29.0464090  80.2308490  81.5671840  25.9729060  80.2538960  75.5645070
  25.3541480  79.9158510  74.9171370  25.9553510  79.6098720  76.2724260
  17.5488410  79.2183400  77.8429550  17.1445410  78.5060650  77.3475450
  17.6351530  78.8736640  78.7317590  24.1493760  79.4925770  72.5717820
  24.5887040  78.6548200  72.4255640  24.8622180  80.1255170  72.6581960
  27.7310900  70.7468580  70.8858860  27.4183560  70.8395410  71.7857930
  28.4923370  71.3249610  70.8356290  14.2493040  78.1128380  75.3436200
  14.1290640  78.8390470  74.7317470  13.9393930  77.3431290  74.8664110
  16.7156700  71.4563450  78.7259870  16.2724850  72.2372990  78.3944390
  17.2741690  71.7793340  79.4330810  19.8315520  71.0774150  73.6065700
  19.2069700  71.0734020  74.3319010  19.7445640  70.2105110  73.2101670
  18.7532600  72.0010780  80.5849470  19.0504930  72.9073610  80.5041490
  19.3018160  71.5129560  79.9709040  16.5070920  76.5797020  76.4541120
  16.2811840  76.3634190  77.3587740  15.7263450  77.0125480  76.1087090
  23.7368680  76.5860390  75.0531770  23.1377570  77.3096190  74.8695390
  24.2848290  76.5237170  74.2708220  22.3433550  75.2223930  77.0835050
  22.7363120  75.5396130  76.2703740  22.7050400  74.3435810  77.1979570
  11.3797720  71.8124730  79.3065250  11.0910770  72.3827590  80.0190230
  12.1243480  71.3329180  79.6696480  11.5667950  75.7544850  70.5167970
  11.4842620  76.6975610  70.6582960  11.2151010  75.6119760  69.6380320
  22.9288690  77.8129680  81.1785830  22.1969810  78.3216490  81.5275930
  22.5313030  76.9959660  80.8774610  19.3666080  74.4883880  79.5838320
  19.3702140  74.0473830  78.7342860  20.2617200  74.8101210  79.6910140
  15.2168460  74.3710370  78.5432530  14.8768510  74.8485600  79.2999580
  14.4545780  73.9175490  78.1833630  19.4286230  75.4895960  72.5745080
  19.5499050  75.4482440  73.5230900  19.0434740  76.3520110  72.4191810
  23.3914600  73.2663360  80.5908770  23.4087340  73.7172010  81.4350620
  23.1430180  72.3669000  80.8042210  18.4407730  77.7997100  71.9728380
  17.8724630  77.3515350  71.3464290  19.1496730  78.1589880  71.4393530
  12.5314540  73.2929350  77.4597200  12.2461460  72.9285020  78.2975820
  12.4693400  72.5609810  76.8460340  22.2053130  72.1858610  74.1810570
  21.3917740  71.6871780  74.1055880  22.0115080  73.0256860  73.7646920
  24.9201520  76.5578260  72.4772730  25.8081140  76.8695490  72.3024070
  24.8906610  75.6850510  72.0853310  27.1915790  77.8690100  71.9452590
  27.1079510  78.3004320  71.0949030  27.9109980  78.3288450  72.3779410
  12.0245200  78.4288300  71.4193900  12.8940050  78.7113100  71.7029820
  11.5335520  79.2424170  71.3042710  19.1880010  79.8161510  75.5402180
  19.6442790  80.6266760  75.7662370  18.8368220  79.4984650  76.3720670
  15.0891790  70.1599160  76.0124700  14.9606420  70.1517060  76.9609620
  14.2653810  70.4982250  75.6615710  14.0091710  80.2461770  73.5475960
  13.4019660  80.9860670  73.5571260  14.4841060  80.3361130  72.7214160
  26.9486530  73.3669530  74.0320410  26.3199690  73.4715200  73.3178640
  26.4538450  73.5866310  74.8214290  18.9170560  75.6455480  75.4478290
  18.2086710  76.1141820  75.8891900  19.2015040  74.9877490  76.0823480
  22.9485990  72.3706140  76.8874080  22.8253770  72.3892270  75.9383590
  23.8970550  72.4185080  77.0072480  17.1205580  73.9540560  72.8229000
  17.9696110  74.3910710  72.7569190  16.7536850  74.2660820  73.6501060
  26.0415360  78.5253320  77.7360570  25.1005500  78.5403550  77.9108260
  26.3559430  77.7389280  78.1820870  16.0197000  80.2072920  71.2964530
  16.7860270  80.0954280  71.8589960  16.0971690  79.5110890  70.6441300
  14.7143760  77.6397990  71.9797420  14.7947350  76.6925500  72.0914820
  15.6063510  77.9704870  72.0858080  18.0516030  80.2038050  73.2707170
  18.4732450  80.0377920  74.1138560  18.1766870  79.3938280  72.7762310
  20.5643670  79.2275660  70.5184270  21.0849330  78.5124680  70.1525420
  21.2112070  79.8661530  70.8184780  16.9474930  76.2771280  70.2165330
  16.7463990  75.4138640  70.5778670  16.7766980  76.1904640  69.2786930
  24.4263240  71.0879510  72.7452210  24.7065530  70.2447410  73.1011630
  23.6528970  71.3202620  73.2590960  15.7457730  73.3771900  70.2043210
  16.0483630  73.3839330  69.2962360  16.4852320  73.0269760  70.7010870
  18.9642660  72.3206520  71.1899410  18.6164660  71.6430510  70.6101860
  19.1655430  71.8596030  72.0042800  28.8043960  80.3256240  73.3556120
  29.5662870  80.8952890  73.4615810  28.8198330  79.7583440  74.1264430
  12.3048300  78.8494170  77.5863780  11.6497140  78.5805810  76.9423480
  13.1426250  78.7398650  77.1365760  25.2538740  73.6435460  71.8082270
  25.6723620  73.4566440  70.9678930  24.9474800  72.7914510  72.1185200
  28.7528470  78.5559600  75.5058070  28.3772070  77.7887530  75.0739360
  28.0231590  78.9382300  75.9933000  11.5186380  76.0593100  73.5289110
  10.6150460  76.3223300  73.3540770  12.0027000  76.3304270  72.7489070
  28.0279430  76.7817090  78.8065310  28.5516910  76.2879740  78.1755480
  28.6138850  76.9167450  79.5512880  14.0613590  75.1158640  71.4383490
  14.7705290  74.6941860  70.9530770  13.3453530  75.1833870  70.8066840
  13.7087750  71.1697970  70.4786140  14.4315880  71.7106910  70.7967360
  13.9812270  70.8961390  69.6027680  27.5179400  76.0390440  74.7457720
  28.0138520  75.8061310  75.5306600  27.3195470  75.2002280  74.3295360
  13.3979940  70.4204160  80.3808760  14.0456130  69.8701540  79.9403920
  13.8181780  70.6747310  81.2024570  28.9466560  74.6751390  77.2795400
  28.8365840  74.5207430  78.2177670  29.7074150  74.1472330  77.0370810
  29.8356830  72.5059310  70.5201540  30.7606140  72.3740490  70.3119830
  29.8132620  72.5852130  71.4737990  29.9095320  73.2769970  73.1458250
  29.1146820  73.2115090  73.6751160  30.1138600  74.2120610  73.1343600
  21.7894180  70.9043750  81.5507990  21.0065970  71.3789250  81.8304750
  21.4957110  69.9998580  81.4421170  26.3415250  71.6066850  79.5957080
  26.7823340  71.5511950  78.7478680  26.0722840  72.5224860  79.6667260
  28.2053820  71.2382090  77.6065900  28.1442220  70.2943310  77.4596920
  28.9845850  71.3462180  78.1519360  13.1334590  71.2091230  74.0721710
  13.8913950  71.3220110  73.4985740  12.6711760  72.0460430  74.0265140
  19.6748400  73.3230500  77.0624020  18.8622910  72.9487390  76.7219900
  20.1790040  72.5675580  77.3645210  24.1773380  69.9872950  78.3007090
  24.7802750  70.5593160  78.7755610  23.4366370  70.5512390  78.0780990
  27.3207980  70.3894510  73.5747370  27.5158610  71.2877960  73.8414800
  26.5337850  70.1581590  74.0680320  15.5059740  71.7355280  72.6123680
  16.0352500  70.9485080  72.4831630  16.1388060  72.4146470  72.8459210
  17.6997580  71.4730420  75.6669070  17.0700320  70.7717730  75.8339200
  17.1602720  72.2334550  75.4502230  23.3326750  78.1860450  59.0436770
  23.2520800  77.2715060  58.7728480  22.9191170  78.6827520  58.3376480
  21.4644790  79.9639470  60.9246040  20.6886890  79.4839910  61.2144610
  22.1157720  79.2845120  60.7502200  15.4810620  80.2759280  61.8021800
  14.6495500  80.0207990  62.2018310  16.0891600  80.3470050  62.5379720
  13.8902570  75.2361170  55.5864190  13.0019270  75.5777140  55.4844070
  14.1743760  75.0361490  54.6945020  11.8535580  77.8366820  61.4703890
  12.4251690  77.0689020  61.4707530  11.8537120  78.1355580  60.5610500
  13.0960450  73.2451180  63.2572820  12.9163290  72.3476930  63.5375580
  12.6940530  73.7923050  63.9319770  21.9358950  75.4467040  61.1585130
  22.3123770  74.5738920  61.0458800  21.8378460  75.7825740  60.2675570
  16.0663960  73.8192670  56.6202570  16.1730710  74.7196400  56.9271330
  15.1556320  73.7710640  56.3297220  25.7183070  72.9417480  58.0913470
  26.5392690  72.4514050  58.1338950  25.7517150  73.5315140  58.8445310
  13.7147120  75.7411680  61.8655160  14.3957230  76.0050050  62.4842560
  13.3995170  74.9012550  62.1993170  17.9071690  76.7879040  60.9527750
  18.4149910  77.2860010  61.5932770  18.4384930  76.0114240  60.7767110
  30.0082620  74.9584230  64.6557100  29.3034790  75.3465940  64.1372210
  30.2740540  75.6534520  65.2578030  16.1907790  71.4277600  65.2191170
  16.1926230  71.9449990  64.4137070  15.3612100  70.9507780  65.1961100
  25.9544550  74.8817860  60.8641010  25.2500120  75.1702750  61.4444120
  26.3156710  75.6917970  60.5040570  15.8723120  73.1387560  63.2261620
  16.2139930  73.9829610  62.9315490  14.9338930  73.2871300  63.3426960
  29.0231470  74.3272650  61.2550220  28.0756380  74.3611630  61.3865650
  29.3481460  75.1411600  61.6399580  19.5551010  70.6269830  59.5506210
  19.8625990  70.0716720  58.8341710  18.6251710  70.7614290  59.3679200
  21.9431770  78.6918660  56.2866330  21.0161050  78.6256040  56.5154800
  22.0956590  79.6298790  56.1721570  21.9300850  74.9635660  53.2833490
  20.9904520  75.1249620  53.3685950  22.2484110  75.6821340  52.7369480
  28.4513610  79.6454180  63.2612520  27.6232240  79.7147270  62.7862650
  29.0464090  80.2308490  62.7928350  25.9729060  80.2538960  56.7901580
  25.3541480  79.9158510  56.1427880  25.9553510  79.6098720  57.4980770
  25.4155620  76.4323500  64.2067390  25.0026800  77.2577210  64.4607380
  24.6831570  75.8468540  64.0143750  17.5488410  79.2183400  59.0686060
  17.1445410  78.5060650  58.5731960  17.6351530  78.8736640  59.9574100
  16.2617030  75.9926610  62.8485100  16.8131620  76.1021950  62.0738350
  16.7760540  76.3664210  63.5640330  24.1493760  79.4925770  53.7974330
  24.5887040  78.6548200  53.6512150  24.8622180  80.1255170  53.8838470
  15.9359760  79.5145970  66.4590440  15.7967530  80.3868770  66.8277840
  15.0541120  79.1718780  66.3138380  27.7310900  70.7468580  52.1115370
  27.4183560  70.8395410  53.0114440  28.4923370  71.3249610  52.0612800
  14.2493040  78.1128380  56.5692710  14.1290640  78.8390470  55.9573980
  13.9393930  77.3431290  56.0920620  28.9412190  75.4840080  68.0889510
  28.3256460  75.9919750  67.5604970  28.6208610  74.5838410  68.0315450
  16.7156700  71.4563450  59.9516380  16.2724850  72.2372990  59.6200900
  17.2741690  71.7793340  60.6587320  21.0026510  74.3231970  65.5551700
  20.5405880  74.5314990  66.3671640  20.6004620  73.5091320  65.2522370
  26.0031020  75.5440920  66.6848360  25.1524610  75.2446670  67.0057430
  25.8432810  75.7882930  65.7732180  23.0980730  77.0442670  68.7847150
  23.4234140  76.2106420  68.4449380  23.8861060  77.5671190  68.9325480
  19.8315520  71.0774150  54.8322210  19.2069700  71.0734020  55.5575520
  19.7445640  70.2105110  54.4358180  18.7532600  72.0010780  61.8105980
  19.0504930  72.9073610  61.7298000  19.3018160  71.5129560  61.1965550
  16.5070920  76.5797020  57.6797630  16.2811840  76.3634190  58.5844250
  15.7263450  77.0125480  57.3343600  23.7368680  76.5860390  56.2788280
  23.1377570  77.3096190  56.0951900  24.2848290  76.5237170  55.4964730
  18.9470130  77.4782600  68.3457900  18.8513730  76.5377330  68.1958300
  19.7902110  77.6997670  67.9505970  22.3433550  75.2223930  58.3091560
  22.7363120  75.5396130  57.4960250  22.7050400  74.3435810  58.4236080
  14.0780670  73.8896270  66.4991680  13.6844060  74.7371480  66.7064460
  13.3899070  73.2522640  66.6900320  20.6525720  73.9731240  69.5688420
  19.9624040  73.7803440  70.2034510  21.3958020  74.2565880  70.1012720
  11.3797720  71.8124730  60.5321760  11.0910770  72.3827590  61.2446740
  12.1243480  71.3329180  60.8952990  11.5667950  75.7544850  51.7424480
  11.4842620  76.6975610  51.8839470  11.2151010  75.6119760  50.8636830
  22.9288690  77.8129680  62.4042340  22.1969810  78.3216490  62.7532440
  22.5313030  76.9959660  62.1031120  19.3666080  74.4883880  60.8094830
  19.3702140  74.0473830  59.9599370  20.2617200  74.8101210  60.9166650
  15.2168460  74.3710370  59.7689040  14.8768510  74.8485600  60.5256090
  14.4545780  73.9175490  59.4090140  19.4286230  75.4895960  53.8001590
  19.5499050  75.4482440  54.7487410  19.0434740  76.3520110  53.6448320
  23.3914600  73.2663360  61.8165280  23.4087340  73.7172010  62.6607130
  23.1430180  72.3669000  62.0298720  18.4407730  77.7997100  53.1984890
  17.8724630  77.3515350  52.5720800  19.1496730  78.1589880  52.6650040
  26.8185350  70.6795540  67.6551660  27.1431120  69.9485200  68.1809640
  26.8541860  70.3609180  66.7532650  19.6674050  78.5485660  62.5560240
  20.0344180  78.0744230  63.3021580  19.4779110  79.4227230  62.8968580
  12.5314540  73.2929350  58.6853710  12.2461460  72.9285020  59.5232330
  12.4693400  72.5609810  58.0716850  17.4573420  77.5894300  64.8744450
  17.1530490  78.4686280  65.0994810  18.4119880  77.6494090  64.9101890
  22.2053130  72.1858610  55.4067080  21.3917740  71.6871780  55.3312390
  22.0115080  73.0256860  54.9903430  22.1261990  80.8629710  67.1506690
  22.0599300  79.9425380  66.8964280  21.4967130  80.9605150  67.8651330
  24.9201520  76.5578260  53.7029240  25.8081140  76.8695490  53.5280580
  24.8906610  75.6850510  53.3109820  13.5137150  78.4297040  66.0215810
  13.1552090  79.0950890  66.6089150  13.2191710  77.5980590  66.3928430
  16.7150270  78.8881280  68.9055360  16.4150410  79.0338460  68.0083180
  17.4861510  78.3286570  68.8128750  27.1915790  77.8690100  53.1709100
  27.1079510  78.3004320  52.3205540  27.9109980  78.3288450  53.6035920
  28.2689930  80.3257620  66.2479070  27.5438120  80.9186400  66.0508460
  28.7965390  80.3181160  65.4492440  12.0245200  78.4288300  52.6450410
  12.8940050  78.7113100  52.9286330  11.5335520  79.2424170  52.5299220
  19.1880010  79.8161510  56.7658690  19.6442790  80.6266760  56.9918880
  18.8368220  79.4984650  57.5977180  15.0891790  70.1599160  57.2381210
  14.9606420  70.1517060  58.1866130  14.2653810  70.4982250  56.8872220
  12.0885720  71.9190280  66.6987910  11.3744240  72.1187200  67.3040520
  12.5080760  71.1429850  67.0702710  14.0091710  80.2461770  54.7732470
  13.4019660  80.9860670  54.7827770  14.4841060  80.3361130  53.9470670
  23.5824500  74.4112590  64.4489360  23.9505320  73.5907800  64.7768930
  22.7222700  74.4714480  64.8645010  26.9486530  73.3669530  55.2576920
  26.3199690  73.4715200  54.5435150  26.4538450  73.5866310  56.0470800
  18.9170560  75.6455480  56.6734800  18.2086710  76.1141820  57.1148410
  19.2015040  74.9877490  57.3079990  20.5426490  77.0652180  64.6727330
  21.0411740  77.5398000  65.3379180  20.6849440  76.1415700  64.8797360
  22.9485990  72.3706140  58.1130590  22.8253770  72.3892270  57.1640100
  23.8970550  72.4185080  58.2328990  17.1205580  73.9540560  54.0485510
  17.9696110  74.3910710  53.9825700  16.7536850  74.2660820  54.8757570
  27.7493350  73.2820140  65.5155720  27.2466950  74.0225540  65.8549530
  28.5650010  73.6704140  65.1992510  26.0415360  78.5253320  58.9617080
  25.1005500  78.5403550  59.1364770  26.3559430  77.7389280  59.4077380
  16.0197000  80.2072920  52.5221040  16.7860270  80.0954280  53.0846470
  16.0971690  79.5110890  51.8697810  14.7143760  77.6397990  53.2053930
  14.7947350  76.6925500  53.3171330  15.6063510  77.9704870  53.3114590
  12.2414560  79.4612910  68.4410100  12.7453580  78.8820190  69.0126330
  11.5021980  79.7453140  68.9786470  14.2737640  77.6042500  69.3360170
  14.3142980  77.3056370  70.2445400  15.1283140  78.0050110  69.1767690
  18.0516030  80.2038050  54.4963680  18.4732450  80.0377920  55.3395070
  18.1766870  79.3938280  54.0018820  16.2143450  76.1834600  67.3034660
  15.6839910  75.6925550  66.6758000  16.8831520  76.6118800  66.7692590
  20.5643670  79.2275660  51.7440780  21.0849330  78.5124680  51.3781930
  21.2112070  79.8661530  52.0441290  25.1121510  80.6504060  67.0675850
  25.5262530  80.8049140  67.9166270  24.1772510  80.7759280  67.2301630
  25.5843680  77.9900220  69.0715000  26.1664450  77.2352540  68.9835480
  25.7605450  78.5207660  68.2946480  16.7015750  73.1496970  67.3831950
  16.6072620  72.5317720  66.6582820  16.1213140  73.8763260  67.1561860
  19.4677190  71.7070210  64.4159340  19.0194490  71.7294470  63.5704890
  18.8342390  71.3089230  65.0129640  22.2100640  78.3340720  66.4209620
  22.3296850  77.7381860  67.1604460  23.0694640  78.3710410  66.0010920
  24.5488540  78.8877910  64.9972130  24.0223760  79.4120530  64.3937270
  24.8919880  79.5205300  65.6281860  16.9474930  76.2771280  51.4421840
  16.7463990  75.4138640  51.8035180  16.7766980  76.1904640  50.5043440
  18.9769410  74.8762070  67.6785440  19.5669100  74.5677920  68.3663260
  18.1589650  74.4041820  67.8345340  23.7962840  74.4927880  67.9118460
  23.1078360  73.8309420  67.8468450  24.5168860  74.0466150  68.3566920
  24.4263240  71.0879510  53.9708720  24.7065530  70.2447410  54.3268140
  23.6528970  71.3202620  54.4847470  15.7457730  73.3771900  51.4299720
  16.0483630  73.3839330  50.5218870  16.4852320  73.0269760  51.9267380
  18.9642660  72.3206520  52.4155920  18.6164660  71.6430510  51.8358370
  19.1655430  71.8596030  53.2299310  28.8043960  80.3256240  54.5812630
  29.5662870  80.8952890  54.6872320  28.8198330  79.7583440  55.3520940
  12.3048300  78.8494170  58.8120290  11.6497140  78.5805810  58.1679990
  13.1426250  78.7398650  58.3622270  25.2538740  73.6435460  53.0338780
  25.6723620  73.4566440  52.1935440  24.9474800  72.7914510  53.3441710
  28.7528470  78.5559600  56.7314580  28.3772070  77.7887530  56.2995870
  28.0231590  78.9382300  57.2189510  13.3424230  79.2346740  63.3523630
  13.7097270  79.1474140  64.2319650  12.7735050  78.4713290  63.2530490
  28.1428090  77.7031120  66.3654100  27.9114180  77.4743870  65.4652050
  28.4032640  78.6230670  66.3198990  12.8940230  76.1455830  67.2582050
  11.9996280  76.1122590  67.5975760  13.4337780  76.3442620  68.0233300
  26.5816160  72.9287550  69.1433800  27.4586340  72.9370950  69.5267800
  26.5937000  72.1918390  68.5326150  11.5186380  76.0593100  54.7545620
  10.6150460  76.3223300  54.5797280  12.0027000  76.3304270  53.9745580
  28.0279430  76.7817090  60.0321820  28.5516910  76.2879740  59.4011990
  28.6138850  76.9167450  60.7769390  28.2069150  76.8656960  63.5541370
  27.2571860  76.8320500  63.6686360  28.3882160  77.7757070  63.3191140
  14.0613590  75.1158640  52.6640000  14.7705290  74.6941860  52.1787280
  13.3453530  75.1833870  52.0323350  13.7087750  71.1697970  51.7042650
  14.4315880  71.7106910  52.0223870  13.9812270  70.8961390  50.8284190
  27.5179400  76.0390440  55.9714230  28.0138520  75.8061310  56.7563110
  27.3195470  75.2002280  55.5551870  13.3979940  70.4204160  61.6065270
  14.0456130  69.8701540  61.1660430  13.8181780  70.6747310  62.4281080
  28.9466560  74.6751390  58.5051910  28.8365840  74.5207430  59.4434180
  29.7074150  74.1472330  58.2627320  27.2932280  70.6145520  64.9634910
  27.9304500  71.2279660  65.3294100  27.4407170  70.6506180  64.0184140
  29.8356830  72.5059310  51.7458050  30.7606140  72.3740490  51.5376340
  29.8132620  72.5852130  52.6994500  29.9095320  73.2769970  54.3714760
  29.1146820  73.2115090  54.9007670  30.1138600  74.2120610  54.3600110
  13.1511940  70.5759830  64.3490590  12.8026760  71.0323650  65.1148770
  12.8199640  69.6816960  64.4313020  20.6636760  71.7671710  67.8710010
  20.6025650  72.3593540  68.6205420  21.6037140  71.6597670  67.7260270
  23.3011320  71.4241770  67.5102300  23.9151730  71.7421060  66.8483380
  23.8460880  70.9390360  68.1298160  13.8232580  70.1036030  67.6241360
  14.3715570  69.9224080  66.8607470  13.8887890  69.3130140  68.1597670
  24.0419360  69.9873910  63.8371590  23.1679200  70.3209020  63.6344520
  23.9330110  69.5147090  64.6623460  24.9491340  72.1944780  65.2213310
  24.6204700  71.3796540  64.8415040  25.8973640  72.1514590  65.0979000
  21.7894180  70.9043750  62.7764500  21.0065970  71.3789250  63.0561260
  21.4957110  69.9998580  62.6677680  26.3415250  71.6066850  60.8213590
  26.7823340  71.5511950  59.9735190  26.0722840  72.5224860  60.8923770
  28.2053820  71.2382090  58.8322410  28.1442220  70.2943310  58.6853430
  28.9845850  71.3462180  59.3775870  13.1334590  71.2091230  55.2978220
  13.8913950  71.3220110  54.7242250  12.6711760  72.0460430  55.2521650
  19.6748400  73.3230500  58.2880530  18.8622910  72.9487390  57.9476410
  20.1790040  72.5675580  58.5901720  24.1773380  69.9872950  59.5263600
  24.7802750  70.5593160  60.0012120  23.4366370  70.5512390  59.3037500
  27.3207980  70.3894510  54.8003880  27.5158610  71.2877960  55.0671310
  26.5337850  70.1581590  55.2936830  15.5059740  71.7355280  53.8380190
  16.0352500  70.9485080  53.7088140  16.1388060  72.4146470  54.0715720
  17.6997580  71.4730420  56.8925580  17.0700320  70.7717730  57.0595710
  17.1602720  72.2334550  56.6758740  17.8253140  70.7514400  69.3278070
  17.5437410  71.2548000  68.5638890  18.2072840  69.9536150  68.9620200
  24.4268600  70.1667980  69.9058540  24.3134050  70.4862590  70.8010060
  25.2438340  70.5680490  69.6095820  23.3326750  78.1860450  40.2693280
  23.2520800  77.2715060  39.9984990  22.9191170  78.6827520  39.5632990
  21.4644790  79.9639470  42.1502550  20.6886890  79.4839910  42.4401120
  22.1157720  79.2845120  41.9758710  15.4810620  80.2759280  43.0278310
  14.6495500  80.0207990  43.4274820  16.0891600  80.3470050  43.7636230
  13.8902570  75.2361170  36.8120700  13.0019270  75.5777140  36.7100580
  14.1743760  75.0361490  35.9201530  11.8535580  77.8366820  42.6960400
  12.4251690  77.0689020  42.6964040  11.8537120  78.1355580  41.7867010
  13.0960450  73.2451180  44.4829330  12.9163290  72.3476930  44.7632090
  12.6940530  73.7923050  45.1576280  21.9358950  75.4467040  42.3841640
  22.3123770  74.5738920  42.2715310  21.8378460  75.7825740  41.4932080
  16.0663960  73.8192670  37.8459080  16.1730710  74.7196400  38.1527840
  15.1556320  73.7710640  37.5553730  25.7183070  72.9417480  39.3169980
  26.5392690  72.4514050  39.3595460  25.7517150  73.5315140  40.0701820
  13.7147120  75.7411680  43.0911670  14.3957230  76.0050050  43.7099070
  13.3995170  74.9012550  43.4249680  17.9071690  76.7879040  42.1784260
  18.4149910  77.2860010  42.8189280  18.4384930  76.0114240  42.0023620
  30.0082620  74.9584230  45.8813610  29.3034790  75.3465940  45.3628720
  30.2740540  75.6534520  46.4834540  16.1907790  71.4277600  46.4447680
  16.1926230  71.9449990  45.6393580  15.3612100  70.9507780  46.4217610
  25.9544550  74.8817860  42.0897520  25.2500120  75.1702750  42.6700630
  26.3156710  75.6917970  41.7297080  15.8723120  73.1387560  44.4518130
  16.2139930  73.9829610  44.1572000  14.9338930  73.2871300  44.5683470
  29.0231470  74.3272650  42.4806730  28.0756380  74.3611630  42.6122160
  29.3481460  75.1411600  42.8656090  19.5551010  70.6269830  40.7762720
  19.8625990  70.0716720  40.0598220  18.6251710  70.7614290  40.5935710
  21.9431770  78.6918660  37.5122840  21.0161050  78.6256040  37.7411310
  22.0956590  79.6298790  37.3978080  21.9300850  74.9635660  34.5090000
  20.9904520  75.1249620  34.5942460  22.2484110  75.6821340  33.9625990
  28.4513610  79.6454180  44.4869030  27.6232240  79.7147270  44.0119160
  29.0464090  80.2308490  44.0184860  25.9729060  80.2538960  38.0158090
  25.3541480  79.9158510  37.3684390  25.9553510  79.6098720  38.7237280
  25.4155620  76.4323500  45.4323900  25.0026800  77.2577210  45.6863890
  24.6831570  75.8468540  45.2400260  17.5488410  79.2183400  40.2942570
  17.1445410  78.5060650  39.7988470  17.6351530  78.8736640  41.1830610
  16.2617030  75.9926610  44.0741610  16.8131620  76.1021950  43.2994860
  16.7760540  76.3664210  44.7896840  24.1493760  79.4925770  35.0230840
  24.5887040  78.6548200  34.8768660  24.8622180  80.1255170  35.1094980
  15.9359760  79.5145970  47.6846950  15.7967530  80.3868770  48.0534350
  15.0541120  79.1718780  47.5394890  27.7310900  70.7468580  33.3371880
  27.4183560  70.8395410  34.2370950  28.4923370  71.3249610  33.2869310
  14.2493040  78.1128380  37.7949220  14.1290640  78.8390470  37.1830490
  13.9393930  77.3431290  37.3177130  28.9412190  75.4840080  49.3146020
  28.3256460  75.9919750  48.7861480  28.6208610  74.5838410  49.2571960
  16.7156700  71.4563450  41.1772890  16.2724850  72.2372990  40.8457410
  17.2741690  71.7793340  41.8843830  21.0026510  74.3231970  46.7808210
  20.5405880  74.5314990  47.5928150  20.6004620  73.5091320  46.4778880
  26.0031020  75.5440920  47.9104870  25.1524610  75.2446670  48.2313940
  25.8432810  75.7882930  46.9988690  23.0980730  77.0442670  50.0103660
  23.4234140  76.2106420  49.6705890  23.8861060  77.5671190  50.1581990
  19.8315520  71.0774150  36.0578720  19.2069700  71.0734020  36.7832030
  19.7445640  70.2105110  35.6614690  18.7532600  72.0010780  43.0362490
  19.0504930  72.9073610  42.9554510  19.3018160  71.5129560  42.4222060
  16.5070920  76.5797020  38.9054140  16.2811840  76.3634190  39.8100760
  15.7263450  77.0125480  38.5600110  23.7368680  76.5860390  37.5044790
  23.1377570  77.3096190  37.3208410  24.2848290  76.5237170  36.7221240
  18.9470130  77.4782600  49.5714410  18.8513730  76.5377330  49.4214810
  19.7902110  77.6997670  49.1762480  22.3433550  75.2223930  39.5348070
  22.7363120  75.5396130  38.7216760  22.7050400  74.3435810  39.6492590
  14.0780670  73.8896270  47.7248190  13.6844060  74.7371480  47.9320970
  13.3899070  73.2522640  47.9156830  20.6525720  73.9731240  50.7944930
  19.9624040  73.7803440  51.4291020  21.3958020  74.2565880  51.3269230
  11.3797720  71.8124730  41.7578270  11.0910770  72.3827590  42.4703250
  12.1243480  71.3329180  42.1209500  11.5667950  75.7544850  32.9680990
  11.4842620  76.6975610  33.1095980  11.2151010  75.6119760  32.0893340
  22.9288690  77.8129680  43.6298850  22.1969810  78.3216490  43.9788950
  22.5313030  76.9959660  43.3287630  19.3666080  74.4883880  42.0351340
  19.3702140  74.0473830  41.1855880  20.2617200  74.8101210  42.1423160
  15.2168460  74.3710370  40.9945550  14.8768510  74.8485600  41.7512600
  14.4545780  73.9175490  40.6346650  19.4286230  75.4895960  35.0258100
  19.5499050  75.4482440  35.9743920  19.0434740  76.3520110  34.8704830
  23.3914600  73.2663360  43.0421790  23.4087340  73.7172010  43.8863640
  23.1430180  72.3669000  43.2555230  18.4407730  77.7997100  34.4241400
  17.8724630  77.3515350  33.7977310  19.1496730  78.1589880  33.8906550
  26.8185350  70.6795540  48.8808170  27.1431120  69.9485200  49.4066150
  26.8541860  70.3609180  47.9789160  19.6674050  78.5485660  43.7816750
  20.0344180  78.0744230  44.5278090  19.4779110  79.4227230  44.1225090
  12.5314540  73.2929350  39.9110220  12.2461460  72.9285020  40.7488840
  12.4693400  72.5609810  39.2973360  17.4573420  77.5894300  46.1000960
  17.1530490  78.4686280  46.3251320  18.4119880  77.6494090  46.1358400
  22.2053130  72.1858610  36.6323590  21.3917740  71.6871780  36.5568900
  22.0115080  73.0256860  36.2159940  22.1261990  80.8629710  48.3763200
  22.0599300  79.9425380  48.1220790  21.4967130  80.9605150  49.0907840
  24.9201520  76.5578260  34.9285750  25.8081140  76.8695490  34.7537090
  24.8906610  75.6850510  34.5366330  13.5137150  78.4297040  47.2472320
  13.1552090  79.0950890  47.8345660  13.2191710  77.5980590  47.6184940
  16.7150270  78.8881280  50.1311870  16.4150410  79.0338460  49.2339690
  17.4861510  78.3286570  50.0385260  27.1915790  77.8690100  34.3965610
  27.1079510  78.3004320  33.5462050  27.9109980  78.3288450  34.8292430
  28.2689930  80.3257620  47.4735580  27.5438120  80.9186400  47.2764970
  28.7965390  80.3181160  46.6748950  12.0245200  78.4288300  33.8706920
  12.8940050  78.7113100  34.1542840  11.5335520  79.2424170  33.7555730
  19.1880010  79.8161510  37.9915200  19.6442790  80.6266760  38.2175390
  18.8368220  79.4984650  38.8233690  15.0891790  70.1599160  38.4637720
  14.9606420  70.1517060  39.4122640  14.2653810  70.4982250  38.1128730
  12.0885720  71.9190280  47.9244420  11.3744240  72.1187200  48.5297030
  12.5080760  71.1429850  48.2959220  14.0091710  80.2461770  35.9988980
  13.4019660  80.9860670  36.0084280  14.4841060  80.3361130  35.1727180
  23.5824500  74.4112590  45.6745870  23.9505320  73.5907800  46.0025440
  22.7222700  74.4714480  46.0901520  26.9486530  73.3669530  36.4833430
  26.3199690  73.4715200  35.7691660  26.4538450  73.5866310  37.2727310
  18.9170560  75.6455480  37.8991310  18.2086710  76.1141820  38.3404920
  19.2015040  74.9877490  38.5336500  20.5426490  77.0652180  45.8983840
  21.0411740  77.5398000  46.5635690  20.6849440  76.1415700  46.1053870
  22.9485990  72.3706140  39.3387100  22.8253770  72.3892270  38.3896610
  23.8970550  72.4185080  39.4585500  17.1205580  73.9540560  35.2742020
  17.9696110  74.3910710  35.2082210  16.7536850  74.2660820  36.1014080
  27.7493350  73.2820140  46.7412230  27.2466950  74.0225540  47.0806040
  28.5650010  73.6704140  46.4249020  26.0415360  78.5253320  40.1873590
  25.1005500  78.5403550  40.3621280  26.3559430  77.7389280  40.6333890
  16.0197000  80.2072920  33.7477550  16.7860270  80.0954280  34.3102980
  16.0971690  79.5110890  33.0954320  14.7143760  77.6397990  34.4310440
  14.7947350  76.6925500  34.5427840  15.6063510  77.9704870  34.5371100
  12.2414560  79.4612910  49.6666610  12.7453580  78.8820190  50.2382840
  11.5021980  79.7453140  50.2042980  14.2737640  77.6042500  50.5616680
  14.3142980  77.3056370  51.4701910  15.1283140  78.0050110  50.4024200
  18.0516030  80.2038050  35.7220190  18.4732450  80.0377920  36.5651580
  18.1766870  79.3938280  35.2275330  16.2143450  76.1834600  48.5291170
  15.6839910  75.6925550  47.9014510  16.8831520  76.6118800  47.9949100
  20.5643670  79.2275660  32.9697290  21.0849330  78.5124680  32.6038440
  21.2112070  79.8661530  33.2697800  25.1121510  80.6504060  48.2932360
  25.5262530  80.8049140  49.1422780  24.1772510  80.7759280  48.4558140
  25.5843680  77.9900220  50.2971510  26.1664450  77.2352540  50.2091990
  25.7605450  78.5207660  49.5202990  16.7015750  73.1496970  48.6088460
  16.6072620  72.5317720  47.8839330  16.1213140  73.8763260  48.3818370
  19.4677190  71.7070210  45.6415850  19.0194490  71.7294470  44.7961400
  18.8342390  71.3089230  46.2386150  22.2100640  78.3340720  47.6466130
  22.3296850  77.7381860  48.3860970  23.0694640  78.3710410  47.2267430
  24.5488540  78.8877910  46.2228640  24.0223760  79.4120530  45.6193780
  24.8919880  79.5205300  46.8538370  16.9474930  76.2771280  32.6678350
  16.7463990  75.4138640  33.0291690  16.7766980  76.1904640  31.7299950
  18.9769410  74.8762070  48.9041950  19.5669100  74.5677920  49.5919770
  18.1589650  74.4041820  49.0601850  23.7962840  74.4927880  49.1374970
  23.1078360  73.8309420  49.0724960  24.5168860  74.0466150  49.5823430
  24.4263240  71.0879510  35.1965230  24.7065530  70.2447410  35.5524650
  23.6528970  71.3202620  35.7103980  15.7457730  73.3771900  32.6556230
  16.0483630  73.3839330  31.7475380  16.4852320  73.0269760  33.1523890
  18.9642660  72.3206520  33.6412430  18.6164660  71.6430510  33.0614880
  19.1655430  71.8596030  34.4555820  28.8043960  80.3256240  35.8069140
  29.5662870  80.8952890  35.9128830  28.8198330  79.7583440  36.5777450
  12.3048300  78.8494170  40.0376800  11.6497140  78.5805810  39.3936500
  13.1426250  78.7398650  39.5878780  25.2538740  73.6435460  34.2595290
  25.6723620  73.4566440  33.4191950  24.9474800  72.7914510  34.5698220
  28.7528470  78.5559600  37.9571090  28.3772070  77.7887530  37.5252380
  28.0231590  78.9382300  38.4446020  13.3424230  79.2346740  44.5780140
  13.7097270  79.1474140  45.4576160  12.7735050  78.4713290  44.4787000
  28.1428090  77.7031120  47.5910610  27.9114180  77.4743870  46.6908560
  28.4032640  78.6230670  47.5455500  12.8940230  76.1455830  48.4838560
  11.9996280  76.1122590  48.8232270  13.4337780  76.3442620  49.2489810
  26.5816160  72.9287550  50.3690310  27.4586340  72.9370950  50.7524310
  26.5937000  72.1918390  49.7582660  11.5186380  76.0593100  35.9802130
  10.6150460  76.3223300  35.8053790  12.0027000  76.3304270  35.2002090
  28.0279430  76.7817090  41.2578330  28.5516910  76.2879740  40.6268500
  28.6138850  76.9167450  42.0025900  28.2069150  76.8656960  44.7797880
  27.2571860  76.8320500  44.8942870  28.3882160  77.7757070  44.5447650
  14.0613590  75.1158640  33.8896510  14.7705290  74.6941860  33.4043790
  13.3453530  75.1833870  33.2579860  13.7087750  71.1697970  32.9299160
  14.4315880  71.7106910  33.2480380  13.9812270  70.8961390  32.0540700
  27.5179400  76.0390440  37.1970740  28.0138520  75.8061310  37.9819620
  27.3195470  75.2002280  36.7808380  13.3979940  70.4204160  42.8321780
  14.0456130  69.8701540  42.3916940  13.8181780  70.6747310  43.6537590
  28.9466560  74.6751390  39.7308420  28.8365840  74.5207430  40.6690690
  29.7074150  74.1472330  39.4883830  27.2932280  70.6145520  46.1891420
  27.9304500  71.2279660  46.5550610  27.4407170  70.6506180  45.2440650
  29.8356830  72.5059310  32.9714560  30.7606140  72.3740490  32.7632850
  29.8132620  72.5852130  33.9251010  29.9095320  73.2769970  35.5971270
  29.1146820  73.2115090  36.1264180  30.1138600  74.2120610  35.5856620
  13.1511940  70.5759830  45.5747100  12.8026760  71.0323650  46.3405280
  12.8199640  69.6816960  45.6569530  20.6636760  71.7671710  49.0966520
  20.6025650  72.3593540  49.8461930  21.6037140  71.6597670  48.9516780
  23.3011320  71.4241770  48.7358810  23.9151730  71.7421060  48.0739890
  23.8460880  70.9390360  49.3554670  13.8232580  70.1036030  48.8497870
  14.3715570  69.9224080  48.0863980  13.8887890  69.3130140  49.3854180
  24.0419360  69.9873910  45.0628100  23.1679200  70.3209020  44.8601030
  23.9330110  69.5147090  45.8879970  24.9491340  72.1944780  46.4469820
  24.6204700  71.3796540  46.0671550  25.8973640  72.1514590  46.3235510
  21.7894180  70.9043750  44.0021010  21.0065970  71.3789250  44.2817770
  21.4957110  69.9998580  43.8934190  26.3415250  71.6066850  42.0470100
  26.7823340  71.5511950  41.1991700  26.0722840  72.5224860  42.1180280
  28.2053820  71.2382090  40.0578920  28.1442220  70.2943310  39.9109940
  28.9845850  71.3462180  40.6032380  13.1334590  71.2091230  36.5234730
  13.8913950  71.3220110  35.9498760  12.6711760  72.0460430  36.4778160
  19.6748400  73.3230500  39.5137040  18.8622910  72.9487390  39.1732920
  20.1790040  72.5675580  39.8158230  24.1773380  69.9872950  40.7520110
  24.7802750  70.5593160  41.2268630  23.4366370  70.5512390  40.5294010
  27.3207980  70.3894510  36.0260390  27.5158610  71.2877960  36.2927820
  26.5337850  70.1581590  36.5193340  15.5059740  71.7355280  35.0636700
  16.0352500  70.9485080  34.9344650  16.1388060  72.4146470  35.2972230
  17.6997580  71.4730420  38.1182090  17.0700320  70.7717730  38.2852220
  17.1602720  72.2334550  37.9015250  17.8253140  70.7514400  50.5534580
  17.5437410  71.2548000  49.7895400  18.2072840  69.9536150  50.1876710
  24.4268600  70.1667980  51.1315050  24.3134050  70.4862590  52.0266570
  25.2438340  70.5680490  50.8352330  23.3326750  78.1860450  21.4949790
  23.2520800  77.2715060  21.2241500  22.9191170  78.6827520  20.7889500
  21.4644790  79.9639470  23.3759060  20.6886890  79.4839910  23.6657630
  22.1157720  79.2845120  23.2015220  15.4810620  80.2759280  24.2534820
  14.6495500  80.0207990  24.6531330  16.0891600  80.3470050  24.9892740
  13.8902570  75.2361170  18.0377210  13.0019270  75.5777140  17.9357090
  14.1743760  75.0361490  17.1458040  11.8535580  77.8366820  23.9216910
  12.4251690  77.0689020  23.9220550  11.8537120  78.1355580  23.0123520
  13.0960450  73.2451180  25.7085840  12.9163290  72.3476930  25.9888600
  12.6940530  73.7923050  26.3832790  21.9358950  75.4467040  23.6098150
  22.3123770  74.5738920  23.4971820  21.8378460  75.7825740  22.7188590
  16.0663960  73.8192670  19.0715590  16.1730710  74.7196400  19.3784350
  15.1556320  73.7710640  18.7810240  25.7183070  72.9417480  20.5426490
  26.5392690  72.4514050  20.5851970  25.7517150  73.5315140  21.2958330
  13.7147120  75.7411680  24.3168180  14.3957230  76.0050050  24.9355580
  13.3995170  74.9012550  24.6506190  17.9071690  76.7879040  23.4040770
  18.4149910  77.2860010  24.0445790  18.4384930  76.0114240  23.2280130
  30.0082620  74.9584230  27.1070120  29.3034790  75.3465940  26.5885230
  30.2740540  75.6534520  27.7091050  16.1907790  71.4277600  27.6704190
  16.1926230  71.9449990  26.8650090  15.3612100  70.9507780  27.6474120
  25.9544550  74.8817860  23.3154030  25.2500120  75.1702750  23.8957140
  26.3156710  75.6917970  22.9553590  15.8723120  73.1387560  25.6774640
  16.2139930  73.9829610  25.3828510  14.9338930  73.2871300  25.7939980
  29.0231470  74.3272650  23.7063240  28.0756380  74.3611630  23.8378670
  29.3481460  75.1411600  24.0912600  19.5551010  70.6269830  22.0019230
  19.8625990  70.0716720  21.2854730  18.6251710  70.7614290  21.8192220
  21.9431770  78.6918660  18.7379350  21.0161050  78.6256040  18.9667820
  22.0956590  79.6298790  18.6234590  21.9300850  74.9635660  15.7346510
  20.9904520  75.1249620  15.8198970  22.2484110  75.6821340  15.1882500
  28.4513610  79.6454180  25.7125540  27.6232240  79.7147270  25.2375670
  29.0464090  80.2308490  25.2441370  25.9729060  80.2538960  19.2414600
  25.3541480  79.9158510  18.5940900  25.9553510  79.6098720  19.9493790
  25.4155620  76.4323500  26.6580410  25.0026800  77.2577210  26.9120400
  24.6831570  75.8468540  26.4656770  17.5488410  79.2183400  21.5199080
  17.1445410  78.5060650  21.0244980  17.6351530  78.8736640  22.4087120
  16.2617030  75.9926610  25.2998120  16.8131620  76.1021950  24.5251370
  16.7760540  76.3664210  26.0153350  24.1493760  79.4925770  16.2487350
  24.5887040  78.6548200  16.1025170  24.8622180  80.1255170  16.3351490
  15.9359760  79.5145970  28.9103460  15.7967530  80.3868770  29.2790860
  15.0541120  79.1718780  28.7651400  27.7310900  70.7468580  14.5628390
  27.4183560  70.8395410  15.4627460  28.4923370  71.3249610  14.5125820
  14.2493040  78.1128380  19.0205730  14.1290640  78.8390470  18.4087000
  13.9393930  77.3431290  18.5433640  28.9412190  75.4840080  30.5402530
  28.3256460  75.9919750  30.0117990  28.6208610  74.5838410  30.4828470
  16.7156700  71.4563450  22.4029400  16.2724850  72.2372990  22.0713920
  17.2741690  71.7793340  23.1100340  21.0026510  74.3231970  28.0064720
  20.5405880  74.5314990  28.8184660  20.6004620  73.5091320  27.7035390
  26.0031020  75.5440920  29.1361380  25.1524610  75.2446670  29.4570450
  25.8432810  75.7882930  28.2245200  23.0980730  77.0442670  31.2360170
  23.4234140  76.2106420  30.8962400  23.8861060  77.5671190  31.3838500
  19.8315520  71.0774150  17.2835230  19.2069700  71.0734020  18.0088540
  19.7445640  70.2105110  16.8871200  18.7532600  72.0010780  24.2619000
  19.0504930  72.9073610  24.1811020  19.3018160  71.5129560  23.6478570
  16.5070920  76.5797020  20.1310650  16.2811840  76.3634190  21.0357270
  15.7263450  77.0125480  19.7856620  23.7368680  76.5860390  18.7301300
  23.1377570  77.3096190  18.5464920  24.2848290  76.5237170  17.9477750
  18.9470130  77.4782600  30.7970920  18.8513730  76.5377330  30.6471320
  19.7902110  77.6997670  30.4018990  22.3433550  75.2223930  20.7604580
  22.7363120  75.5396130  19.9473270  22.7050400  74.3435810  20.8749100
  14.0780670  73.8896270  28.9504700  13.6844060  74.7371480  29.1577480
  13.3899070  73.2522640  29.1413340  20.6525720  73.9731240  32.0201440
  19.9624040  73.7803440  32.6547530  21.3958020  74.2565880  32.5525740
  11.3797720  71.8124730  22.9834780  11.0910770  72.3827590  23.6959760
  12.1243480  71.3329180  23.3466010  11.5667950  75.7544850  14.1937500
  11.4842620  76.6975610  14.3352490  11.2151010  75.6119760  13.3149850
  22.9288690  77.8129680  24.8555360  22.1969810  78.3216490  25.2045460
  22.5313030  76.9959660  24.5544140  19.3666080  74.4883880  23.2607850
  19.3702140  74.0473830  22.4112390  20.2617200  74.8101210  23.3679670
  15.2168460  74.3710370  22.2202060  14.8768510  74.8485600  22.9769110
  14.4545780  73.9175490  21.8603160  19.4286230  75.4895960  16.2514610
  19.5499050  75.4482440  17.2000430  19.0434740  76.3520110  16.0961340
  23.3914600  73.2663360  24.2678300  23.4087340  73.7172010  25.1120150
  23.1430180  72.3669000  24.4811740  18.4407730  77.7997100  15.6497910
  17.8724630  77.3515350  15.0233820  19.1496730  78.1589880  15.1163060
  26.8185350  70.6795540  30.1064680  27.1431120  69.9485200  30.6322660
  26.8541860  70.3609180  29.2045670  19.6674050  78.5485660  25.0073260
  20.0344180  78.0744230  25.7534600  19.4779110  79.4227230  25.3481600
  12.5314540  73.2929350  21.1366730  12.2461460  72.9285020  21.9745350
  12.4693400  72.5609810  20.5229870  17.4573420  77.5894300  27.3257470
  17.1530490  78.4686280  27.5507830  18.4119880  77.6494090  27.3614910
  22.2053130  72.1858610  17.8580100  21.3917740  71.6871780  17.7825410
  22.0115080  73.0256860  17.4416450  22.1261990  80.8629710  29.6019710
  22.0599300  79.9425380  29.3477300  21.4967130  80.9605150  30.3164350
  24.9201520  76.5578260  16.1542260  25.8081140  76.8695490  15.9793600
  24.8906610  75.6850510  15.7622840  13.5137150  78.4297040  28.4728830
  13.1552090  79.0950890  29.0602170  13.2191710  77.5980590  28.8441450
  16.7150270  78.8881280  31.3568380  16.4150410  79.0338460  30.4596200
  17.4861510  78.3286570  31.2641770  27.1915790  77.8690100  15.6222120
  27.1079510  78.3004320  14.7718560  27.9109980  78.3288450  16.0548940
  28.2689930  80.3257620  28.6992090  27.5438120  80.9186400  28.5021480
  28.7965390  80.3181160  27.9005460  12.0245200  78.4288300  15.0963430
  12.8940050  78.7113100  15.3799350  11.5335520  79.2424170  14.9812240
  19.1880010  79.8161510  19.2171710  19.6442790  80.6266760  19.4431900
  18.8368220  79.4984650  20.0490200  15.0891790  70.1599160  19.6894230
  14.9606420  70.1517060  20.6379150  14.2653810  70.4982250  19.3385240
  12.0885720  71.9190280  29.1500930  11.3744240  72.1187200  29.7553540
  12.5080760  71.1429850  29.5215730  14.0091710  80.2461770  17.2245490
  13.4019660  80.9860670  17.2340790  14.4841060  80.3361130  16.3983690
  23.5824500  74.4112590  26.9002380  23.9505320  73.5907800  27.2281950
  22.7222700  74.4714480  27.3158030  26.9486530  73.3669530  17.7089940
  26.3199690  73.4715200  16.9948170  26.4538450  73.5866310  18.4983820
  18.9170560  75.6455480  19.1247820  18.2086710  76.1141820  19.5661430
  19.2015040  74.9877490  19.7593010  20.5426490  77.0652180  27.1240350
  21.0411740  77.5398000  27.7892200  20.6849440  76.1415700  27.3310380
  22.9485990  72.3706140  20.5643610  22.8253770  72.3892270  19.6153120
  23.8970550  72.4185080  20.6842010  17.1205580  73.9540560  16.4998530
  17.9696110  74.3910710  16.4338720  16.7536850  74.2660820  17.3270590
  27.7493350  73.2820140  27.9668740  27.2466950  74.0225540  28.3062550
  28.5650010  73.6704140  27.6505530  26.0415360  78.5253320  21.4130100
  25.1005500  78.5403550  21.5877790  26.3559430  77.7389280  21.8590400
  16.0197000  80.2072920  14.9734060  16.7860270  80.0954280  15.5359490
  16.0971690  79.5110890  14.3210830  14.7143760  77.6397990  15.6566950
  14.7947350  76.6925500  15.7684350  15.6063510  77.9704870  15.7627610
  12.2414560  79.4612910  30.8923120  12.7453580  78.8820190  31.4639350
  11.5021980  79.7453140  31.4299490  14.2737640  77.6042500  31.7873190
  14.3142980  77.3056370  32.6958420  15.1283140  78.0050110  31.6280710
  18.0516030  80.2038050  16.9476700  18.4732450  80.0377920  17.7908090
  18.1766870  79.3938280  16.4531840  16.2143450  76.1834600  29.7547680
  15.6839910  75.6925550  29.1271020  16.8831520  76.6118800  29.2205610
  20.5643670  79.2275660  14.1953800  21.0849330  78.5124680  13.8294950
  21.2112070  79.8661530  14.4954310  25.1121510  80.6504060  29.5188870
  25.5262530  80.8049140  30.3679290  24.1772510  80.7759280  29.6814650
  25.5843680  77.9900220  31.5228020  26.1664450  77.2352540  31.4348500
  25.7605450  78.5207660  30.7459500  16.7015750  73.1496970  29.8344970
  16.6072620  72.5317720  29.1095840  16.1213140  73.8763260  29.6074880
  19.4677190  71.7070210  26.8672360  19.0194490  71.7294470  26.0217910
  18.8342390  71.3089230  27.4642660  22.2100640  78.3340720  28.8722640
  22.3296850  77.7381860  29.6117480  23.0694640  78.3710410  28.4523940
  24.5488540  78.8877910  27.4485150  24.0223760  79.4120530  26.8450290
  24.8919880  79.5205300  28.0794880  16.9474930  76.2771280  13.8934860
  16.7463990  75.4138640  14.2548200  16.7766980  76.1904640  12.9556460
  18.9769410  74.8762070  30.1298460  19.5669100  74.5677920  30.8176280
  18.1589650  74.4041820  30.2858360  23.7962840  74.4927880  30.3631480
  23.1078360  73.8309420  30.2981470  24.5168860  74.0466150  30.8079940
  24.4263240  71.0879510  16.4221740  24.7065530  70.2447410  16.7781160
  23.6528970  71.3202620  16.9360490  15.7457730  73.3771900  13.8812740
  16.0483630  73.3839330  12.9731890  16.4852320  73.0269760  14.3780400
  18.9642660  72.3206520  14.8668940  18.6164660  71.6430510  14.2871390
  19.1655430  71.8596030  15.6812330  28.8043960  80.3256240  17.0325650
  29.5662870  80.8952890  17.1385340  28.8198330  79.7583440  17.8033960
  12.3048300  78.8494170  21.2633310  11.6497140  78.5805810  20.6193010
  13.1426250  78.7398650  20.8135290  25.2538740  73.6435460  15.4851800
  25.6723620  73.4566440  14.6448460  24.9474800  72.7914510  15.7954730
  28.7528470  78.5559600  19.1827600  28.3772070  77.7887530  18.7508890
  28.0231590  78.9382300  19.6702530  13.3424230  79.2346740  25.8036650
  13.7097270  79.1474140  26.6832670  12.7735050  78.4713290  25.7043510
  28.1428090  77.7031120  28.8167120  27.9114180  77.4743870  27.9165070
  28.4032640  78.6230670  28.7712010  12.8940230  76.1455830  29.7095070
  11.9996280  76.1122590  30.0488780  13.4337780  76.3442620  30.4746320
  26.5816160  72.9287550  31.5946820  27.4586340  72.9370950  31.9780820
  26.5937000  72.1918390  30.9839170  11.5186380  76.0593100  17.2058640
  10.6150460  76.3223300  17.0310300  12.0027000  76.3304270  16.4258600
  28.0279430  76.7817090  22.4834840  28.5516910  76.2879740  21.8525010
  28.6138850  76.9167450  23.2282410  28.2069150  76.8656960  26.0054390
  27.2571860  76.8320500  26.1199380  28.3882160  77.7757070  25.7704160
  14.0613590  75.1158640  15.1153020  14.7705290  74.6941860  14.6300300
  13.3453530  75.1833870  14.4836370  13.7087750  71.1697970  14.1555670
  14.4315880  71.7106910  14.4736890  13.9812270  70.8961390  13.2797210
  27.5179400  76.0390440  18.4227250  28.0138520  75.8061310  19.2076130
  27.3195470  75.2002280  18.0064890  13.3979940  70.4204160  24.0578290
  14.0456130  69.8701540  23.6173450  13.8181780  70.6747310  24.8794100
  28.9466560  74.6751390  20.9564930  28.8365840  74.5207430  21.8947200
  29.7074150  74.1472330  20.7140340  27.2932280  70.6145520  27.4147930
  27.9304500  71.2279660  27.7807120  27.4407170  70.6506180  26.4697160
  29.8356830  72.5059310  14.1971070  30.7606140  72.3740490  13.9889360
  29.8132620  72.5852130  15.1507520  29.9095320  73.2769970  16.8227780
  29.1146820  73.2115090  17.3520690  30.1138600  74.2120610  16.8113130
  13.1511940  70.5759830  26.8003610  12.8026760  71.0323650  27.5661790
  12.8199640  69.6816960  26.8826040  20.6636760  71.7671710  30.3223030
  20.6025650  72.3593540  31.0718440  21.6037140  71.6597670  30.1773290
  23.3011320  71.4241770  29.9615320  23.9151730  71.7421060  29.2996400
  23.8460880  70.9390360  30.5811180  13.8232580  70.1036030  30.0754380
  14.3715570  69.9224080  29.3120490  13.8887890  69.3130140  30.6110690
  24.0419360  69.9873910  26.2884610  23.1679200  70.3209020  26.0857540
  23.9330110  69.5147090  27.1136480  24.9491340  72.1944780  27.6726330
  24.6204700  71.3796540  27.2928060  25.8973640  72.1514590  27.5492020
  21.7894180  70.9043750  25.2277520  21.0065970  71.3789250  25.5074280
  21.4957110  69.9998580  25.1190700  26.3415250  71.6066850  23.2726610
  26.7823340  71.5511950  22.4248210  26.0722840  72.5224860  23.3436790
  28.2053820  71.2382090  21.2835430  28.1442220  70.2943310  21.1366450
  28.9845850  71.3462180  21.8288890  13.1334590  71.2091230  17.7491240
  13.8913950  71.3220110  17.1755270  12.6711760  72.0460430  17.7034670
  19.6748400  73.3230500  20.7393550  18.8622910  72.9487390  20.3989430
  20.1790040  72.5675580  21.0414740  24.1773380  69.9872950  21.9776620
  24.7802750  70.5593160  22.4525140  23.4366370  70.5512390  21.7550520
  27.3207980  70.3894510  17.2516900  27.5158610  71.2877960  17.5184330
  26.5337850  70.1581590  17.7449850  15.5059740  71.7355280  16.2893210
  16.0352500  70.9485080  16.1601160  16.1388060  72.4146470  16.5228740
  17.6997580  71.4730420  19.3438600  17.0700320  70.7717730  19.5108730
  17.1602720  72.2334550  19.1271760  17.8253140  70.7514400  31.7791090
  17.5437410  71.2548000  31.0151910  18.2072840  69.9536150  31.4133220
  24.4268600  70.1667980  32.3571560  24.3134050  70.4862590  33.2523080
  25.2438340  70.5680490  32.0608840  23.3326750  78.1860450   2.7206300
  23.2520800  77.2715060   2.4498010  22.9191170  78.6827520   2.0146010
  21.4644790  79.9639470   4.6015570  20.6886890  79.4839910   4.8914140
  22.1157720  79.2845120   4.4271730  15.4810620  80.2759280   5.4791330
  14.6495500  80.0207990   5.8787840  16.0891600  80.3470050   6.2149250
  11.8535580  77.8366820   5.1473420  12.4251690  77.0689020   5.1477060
  11.8537120  78.1355580   4.2380030  13.0960450  73.2451180   6.9342350
  12.9163290  72.3476930   7.2145110  12.6940530  73.7923050   7.6089300
  21.9358950  75.4467040   4.8354660  22.3123770  74.5738920   4.7228330
  21.8378460  75.7825740   3.9445100  25.7183070  72.9417480   1.7683000
  26.5392690  72.4514050   1.8108480  25.7517150  73.5315140   2.5214840
  13.7147120  75.7411680   5.5424690  14.3957230  76.0050050   6.1612090
  13.3995170  74.9012550   5.8762700  17.9071690  76.7879040   4.6297280
  18.4149910  77.2860010   5.2702300  18.4384930  76.0114240   4.4536640
  30.0082620  74.9584230   8.3326630  29.3034790  75.3465940   7.8141740
  30.2740540  75.6534520   8.9347560  16.1907790  71.4277600   8.8960700
  16.1926230  71.9449990   8.0906600  15.3612100  70.9507780   8.8730630
  25.9544550  74.8817860   4.5410540  25.2500120  75.1702750   5.1213650
  26.3156710  75.6917970   4.1810100  15.8723120  73.1387560   6.9031150
  16.2139930  73.9829610   6.6085020  14.9338930  73.2871300   7.0196490
  29.0231470  74.3272650   4.9319750  28.0756380  74.3611630   5.0635180
  29.3481460  75.1411600   5.3169110  19.5551010  70.6269830   3.2275740
  19.8625990  70.0716720   2.5111240  18.6251710  70.7614290   3.0448730
  28.4513610  79.6454180   6.9382050  27.6232240  79.7147270   6.4632180
  29.0464090  80.2308490   6.4697880  25.4155620  76.4323500   7.8836920
  25.0026800  77.2577210   8.1376910  24.6831570  75.8468540   7.6913280
  17.5488410  79.2183400   2.7455590  17.1445410  78.5060650   2.2501490
  17.6351530  78.8736640   3.6343630  16.2617030  75.9926610   6.5254630
  16.8131620  76.1021950   5.7507880  16.7760540  76.3664210   7.2409860
  15.9359760  79.5145970  10.1359970  15.7967530  80.3868770  10.5047370
  15.0541120  79.1718780   9.9907910  28.9412190  75.4840080  11.7659040
  28.3256460  75.9919750  11.2374500  28.6208610  74.5838410  11.7084980
  16.7156700  71.4563450   3.6285910  16.2724850  72.2372990   3.2970430
  17.2741690  71.7793340   4.3356850  21.0026510  74.3231970   9.2321230
  20.5405880  74.5314990  10.0441170  20.6004620  73.5091320   8.9291900
  26.0031020  75.5440920  10.3617890  25.1524610  75.2446670  10.6826960
  25.8432810  75.7882930   9.4501710  23.0980730  77.0442670  12.4616680
  23.4234140  76.2106420  12.1218910  23.8861060  77.5671190  12.6095010
  18.7532600  72.0010780   5.4875510  19.0504930  72.9073610   5.4067530
  19.3018160  71.5129560   4.8735080  18.9470130  77.4782600  12.0227430
  18.8513730  76.5377330  11.8727830  19.7902110  77.6997670  11.6275500
  14.0780670  73.8896270  10.1761210  13.6844060  74.7371480  10.3833990
  13.3899070  73.2522640  10.3669850  20.6525720  73.9731240  13.2457950
  19.9624040  73.7803440  13.8804040  21.3958020  74.2565880  13.7782250
  11.3797720  71.8124730   4.2091290  11.0910770  72.3827590   4.9216270
  12.1243480  71.3329180   4.5722520  22.9288690  77.8129680   6.0811870
  22.1969810  78.3216490   6.4301970  22.5313030  76.9959660   5.7800650
  19.3666080  74.4883880   4.4864360  19.3702140  74.0473830   3.6368900
  20.2617200  74.8101210   4.5936180  15.2168460  74.3710370   3.4458570
  14.8768510  74.8485600   4.2025620  14.4545780  73.9175490   3.0859670
  23.3914600  73.2663360   5.4934810  23.4087340  73.7172010   6.3376660
  23.1430180  72.3669000   5.7068250  26.8185350  70.6795540  11.3321190
  27.1431120  69.9485200  11.8579170  26.8541860  70.3609180  10.4302180
  19.6674050  78.5485660   6.2329770  20.0344180  78.0744230   6.9791110
  19.4779110  79.4227230   6.5738110  12.5314540  73.2929350   2.3623240
  12.2461460  72.9285020   3.2001860  12.4693400  72.5609810   1.7486380
  17.4573420  77.5894300   8.5513980  17.1530490  78.4686280   8.7764340
  18.4119880  77.6494090   8.5871420  22.1261990  80.8629710  10.8276220
  22.0599300  79.9425380  10.5733810  21.4967130  80.9605150  11.5420860
  13.5137150  78.4297040   9.6985340  13.1552090  79.0950890  10.2858680
  13.2191710  77.5980590  10.0697960  16.7150270  78.8881280  12.5824890
  16.4150410  79.0338460  11.6852710  17.4861510  78.3286570  12.4898280
  28.2689930  80.3257620   9.9248600  27.5438120  80.9186400   9.7277990
  28.7965390  80.3181160   9.1261970  12.0885720  71.9190280  10.3757440
  11.3744240  72.1187200  10.9810050  12.5080760  71.1429850  10.7472240
  23.5824500  74.4112590   8.1258890  23.9505320  73.5907800   8.4538460
  22.7222700  74.4714480   8.5414540  20.5426490  77.0652180   8.3496860
  21.0411740  77.5398000   9.0148710  20.6849440  76.1415700   8.5566890
  27.7493350  73.2820140   9.1925250  27.2466950  74.0225540   9.5319060
  28.5650010  73.6704140   8.8762040  26.0415360  78.5253320   2.6386610
  25.1005500  78.5403550   2.8134300  26.3559430  77.7389280   3.0846910
  12.2414560  79.4612910  12.1179630  12.7453580  78.8820190  12.6895860
  11.5021980  79.7453140  12.6556000  14.2737640  77.6042500  13.0129700
  14.3142980  77.3056370  13.9214930  15.1283140  78.0050110  12.8537220
  16.2143450  76.1834600  10.9804190  15.6839910  75.6925550  10.3527530
  16.8831520  76.6118800  10.4462120  25.1121510  80.6504060  10.7445380
  25.5262530  80.8049140  11.5935800  24.1772510  80.7759280  10.9071160
  25.5843680  77.9900220  12.7484530  26.1664450  77.2352540  12.6605010
  25.7605450  78.5207660  11.9716010  16.7015750  73.1496970  11.0601480
  16.6072620  72.5317720  10.3352350  16.1213140  73.8763260  10.8331390
  19.4677190  71.7070210   8.0928870  19.0194490  71.7294470   7.2474420
  18.8342390  71.3089230   8.6899170  22.2100640  78.3340720  10.0979150
  22.3296850  77.7381860  10.8373990  23.0694640  78.3710410   9.6780450
  24.5488540  78.8877910   8.6741660  24.0223760  79.4120530   8.0706800
  24.8919880  79.5205300   9.3051390  18.9769410  74.8762070  11.3554970
  19.5669100  74.5677920  12.0432790  18.1589650  74.4041820  11.5114870
  23.7962840  74.4927880  11.5887990  23.1078360  73.8309420  11.5237980
  24.5168860  74.0466150  12.0336450  12.3048300  78.8494170   2.4889820
  11.6497140  78.5805810   1.8449520  13.1426250  78.7398650   2.0391800
  13.3424230  79.2346740   7.0293160  13.7097270  79.1474140   7.9089180
  12.7735050  78.4713290   6.9300020  28.1428090  77.7031120  10.0423630
  27.9114180  77.4743870   9.1421580  28.4032640  78.6230670   9.9968520
  12.8940230  76.1455830  10.9351580  11.9996280  76.1122590  11.2745290
  13.4337780  76.3442620  11.7002830  26.5816160  72.9287550  12.8203330
  27.4586340  72.9370950  13.2037330  26.5937000  72.1918390  12.2095680
  28.0279430  76.7817090   3.7091350  28.5516910  76.2879740   3.0781520
  28.6138850  76.9167450   4.4538920  28.2069150  76.8656960   7.2310900
  27.2571860  76.8320500   7.3455890  28.3882160  77.7757070   6.9960670
  13.3979940  70.4204160   5.2834800  14.0456130  69.8701540   4.8429960
  13.8181780  70.6747310   6.1050610  28.9466560  74.6751390   2.1821440
  28.8365840  74.5207430   3.1203710  29.7074150  74.1472330   1.9396850
  27.2932280  70.6145520   8.6404440  27.9304500  71.2279660   9.0063630
  27.4407170  70.6506180   7.6953670  13.1511940  70.5759830   8.0260120
  12.8026760  71.0323650   8.7918300  12.8199640  69.6816960   8.1082550
  20.6636760  71.7671710  11.5479540  20.6025650  72.3593540  12.2974950
  21.6037140  71.6597670  11.4029800  23.3011320  71.4241770  11.1871830
  23.9151730  71.7421060  10.5252910  23.8460880  70.9390360  11.8067690
  13.8232580  70.1036030  11.3010890  14.3715570  69.9224080  10.5377000
  13.8887890  69.3130140  11.8367200  24.0419360  69.9873910   7.5141120
  23.1679200  70.3209020   7.3114050  23.9330110  69.5147090   8.3392990
  24.9491340  72.1944780   8.8982840  24.6204700  71.3796540   8.5184570
  25.8973640  72.1514590   8.7748530  21.7894180  70.9043750   6.4534030
  21.0065970  71.3789250   6.7330790  21.4957110  69.9998580   6.3447210
  26.3415250  71.6066850   4.4983120  26.7823340  71.5511950   3.6504720
  26.0722840  72.5224860   4.5693300  28.2053820  71.2382090   2.5091940
  28.1442220  70.2943310   2.3622960  28.9845850  71.3462180   3.0545400
  24.1773380  69.9872950   3.2033130  24.7802750  70.5593160   3.6781650
  23.4366370  70.5512390   2.9807030  17.8253140  70.7514400  13.0047600
  17.5437410  71.2548000  12.2408420  18.2072840  69.9536150  12.6389730
  24.4268600  70.1667980  13.5828070  24.3134050  70.4862590  14.4779590
  25.2438340  70.5680490  13.2865350  23.3326750  59.4116960  77.8180260
  23.2520800  58.4971570  77.5471970  22.9191170  59.9084030  77.1119970
  21.4644790  61.1895980  79.6989530  20.6886890  60.7096420  79.9888100
  22.1157720  60.5101630  79.5245690  15.4810620  61.5015790  80.5765290
  14.6495500  61.2464500  80.9761800  16.0891600  61.5726560  81.3123210
  25.4852220  65.5956170  78.4788660  25.0233750  64.8243410  78.8075830
  26.2977770  65.6222240  78.9841110  15.4611880  65.5355880  80.7723310
  15.7639920  64.6453620  80.5933530  16.2055470  66.0926100  80.5445560
  13.8902570  56.4617680  74.3607680  13.0019270  56.8033650  74.2587560
  14.1743760  56.2618000  73.4688510  11.8535580  59.0623330  80.2447380
  12.4251690  58.2945530  80.2451020  11.8537120  59.3612090  79.3353990
  21.7115530  67.8814180  78.0992650  21.0926970  68.3371680  77.5287090
  22.5667310  68.0365640  77.6982350  20.9053780  63.8653170  79.7059690
  20.8362060  62.9243110  79.5448820  21.6673640  63.9554580  80.2782260
  21.9358950  56.6723550  79.9328620  22.3123770  55.7995430  79.8202290
  21.8378460  57.0082250  79.0419060  16.0663960  55.0449180  75.3946060
  16.1730710  55.9452910  75.7014820  15.1556320  54.9967150  75.1040710
  25.7183070  54.1673990  76.8656960  26.5392690  53.6770560  76.9082440
  25.7517150  54.7571650  77.6188800  13.7147120  56.9668190  80.6398650
  14.3957230  57.2306560  81.2586050  13.3995170  56.1269060  80.9736660
  17.9071690  58.0135550  79.7271240  18.4149910  58.5116520  80.3676260
  18.4384930  57.2370750  79.5510600  22.5778880  62.7653420  75.4924560
  21.9596150  63.2302870  74.9287280  23.0902130  63.4580900  75.9094070
  25.9544550  56.1074370  79.6384500  25.2500120  56.3959260  80.2187610
  26.3156710  56.9174480  79.2784060  11.9462080  63.4509950  72.8664190
  11.5690060  63.9397050  72.1349090  12.2035150  64.1235230  73.4970720
  27.5707330  65.7249500  81.9011980  26.8870850  66.3948610  81.8928650
  28.1101620  65.9230150  81.1356840  29.0231470  55.5529160  80.0293710
  28.0756380  55.5868140  80.1609140  29.3481460  56.3668110  80.4143070
  19.5551010  51.8526340  78.3249700  19.8625990  51.2973230  77.6085200
  18.6251710  51.9870800  78.1422690  25.1066070  67.5693630  80.6157160
  25.1193230  67.1655920  79.7479420  24.5541290  68.3440920  80.5118590
  26.4011490  64.2909850  75.7047330  26.2907820  63.3484180  75.8296750
  26.3979740  64.6525490  76.5910090  21.9431770  59.9175170  75.0609820
  21.0161050  59.8512550  75.2898290  22.0956590  60.8555300  74.9465060
  21.9300850  56.1892170  72.0576980  20.9904520  56.3506130  72.1429440
  22.2484110  56.9077850  71.5112970  28.4513610  60.8710690  82.0356010
  27.6232240  60.9403780  81.5606140  29.0464090  61.4565000  81.5671840
  25.9729060  61.4795470  75.5645070  25.3541480  61.1415020  74.9171370
  25.9553510  60.8355230  76.2724260  17.5488410  60.4439910  77.8429550
  17.1445410  59.7317160  77.3475450  17.6351530  60.0993150  78.7317590
  18.0170110  64.1307470  80.0068760  17.7198400  63.5252940  79.3276540
  18.9669930  64.1684780  79.8958120  24.1493760  60.7182280  72.5717820
  24.5887040  59.8804710  72.4255640  24.8622180  61.3511680  72.6581960
  22.2589140  65.6578350  76.5399060  22.6985050  66.4002680  76.1254450
  22.1976030  65.9004920  77.4638020  27.7310900  51.9725090  70.8858860
  27.4183560  52.0651920  71.7857930  28.4923370  52.5506120  70.8356290
  14.2493040  59.3384890  75.3436200  14.1290640  60.0646980  74.7317470
  13.9393930  58.5687800  74.8664110  11.8878410  62.5100030  81.1504840
  11.9658830  62.6448800  80.2060560  12.5020090  61.8015920  81.3432960
  13.1326040  64.2100220  77.5611020  12.7254120  64.3514810  76.7064620
  14.0239050  63.9260380  77.3582230  24.9259320  68.6447470  73.8962070
  24.7660460  68.3550410  74.7943900  24.7606030  67.8687600  73.3607300
  17.4047700  68.4246000  75.6733690  17.2290180  67.5081540  75.4601490
  16.5503440  68.7833290  75.9131490  24.6285450  66.1535030  72.4560070
  23.9350610  66.1512320  71.7962350  25.3708310  65.7294350  72.0254240
  24.1935380  67.7797740  76.5308560  24.6492330  66.9987120  76.8447180
  24.5327900  68.4904560  77.0749740  16.7156700  52.6819960  78.7259870
  16.2724850  53.4629500  78.3944390  17.2741690  53.0049850  79.4330810
  19.8315520  52.3030660  73.6065700  19.2069700  52.2990530  74.3319010
  19.7445640  51.4361620  73.2101670  18.7532600  53.2267290  80.5849470
  19.0504930  54.1330120  80.5041490  19.3018160  52.7386070  79.9709040
  16.5070920  57.8053530  76.4541120  16.2811840  57.5890700  77.3587740
  15.7263450  58.2381990  76.1087090  23.7368680  57.8116900  75.0531770
  23.1377570  58.5352700  74.8695390  24.2848290  57.7493680  74.2708220
  22.3433550  56.4480440  77.0835050  22.7363120  56.7652640  76.2703740
  22.7050400  55.5692320  77.1979570  11.3797720  53.0381240  79.3065250
  11.0910770  53.6084100  80.0190230  12.1243480  52.5585690  79.6696480
  11.5667950  56.9801360  70.5167970  11.4842620  57.9232120  70.6582960
  11.2151010  56.8376270  69.6380320  22.9288690  59.0386190  81.1785830
  22.1969810  59.5473000  81.5275930  22.5313030  58.2216170  80.8774610
  19.3666080  55.7140390  79.5838320  19.3702140  55.2730340  78.7342860
  20.2617200  56.0357720  79.6910140  15.2168460  55.5966880  78.5432530
  14.8768510  56.0742110  79.2999580  14.4545780  55.1432000  78.1833630
  19.4286230  56.7152470  72.5745080  19.5499050  56.6738950  73.5230900
  19.0434740  57.5776620  72.4191810  23.3914600  54.4919870  80.5908770
  23.4087340  54.9428520  81.4350620  23.1430180  53.5925510  80.8042210
  18.4407730  59.0253610  71.9728380  17.8724630  58.5771860  71.3464290
  19.1496730  59.3846390  71.4393530  12.5314540  54.5185860  77.4597200
  12.2461460  54.1541530  78.2975820  12.4693400  53.7866320  76.8460340
  15.9855210  63.0211800  74.2454790  15.2117470  62.4809420  74.0853510
  16.7149840  62.5018410  73.9072550  26.7443190  62.0177160  80.0381180
  27.4642310  62.5132450  79.6477290  26.5425010  61.3395050  79.3935050
  22.2053130  53.4115120  74.1810570  21.3917740  52.9128290  74.1055880
  22.0115080  54.2513370  73.7646920  24.9201520  57.7834770  72.4772730
  25.8081140  58.0952000  72.3024070  24.8906610  56.9107020  72.0853310
  16.0292610  62.6892180  77.8833600  16.5471280  61.8860440  77.8290490
  15.5776630  62.6271320  78.7250430  20.9162110  63.9558460  73.1560900
  21.2577810  64.7000690  72.6604220  20.0874820  64.2689580  73.5185730
  27.1915790  59.0946610  71.9452590  27.1079510  59.5260830  71.0949030
  27.9109980  59.5544960  72.3779410  28.2203040  65.9488870  74.6734720
  27.5779200  65.2944490  74.9478440  27.8333700  66.3543960  73.8975390
  23.7989520  63.2774300  78.5206410  24.1513340  62.6802430  77.8607780
  22.9151850  62.9518530  78.6914660  19.8852800  64.0371990  75.9276820
  20.5723930  64.5841200  76.3084410  19.0985220  64.5812720  75.9626430
  12.0245200  59.6544810  71.4193900  12.8940050  59.9369610  71.7029820
  11.5335520  60.4680680  71.3042710  19.1880010  61.0418020  75.5402180
  19.6442790  61.8523270  75.7662370  18.8368220  60.7241160  76.3720670
  15.0891790  51.3855670  76.0124700  14.9606420  51.3773570  76.9609620
  14.2653810  51.7238760  75.6615710  22.7644700  64.5556710  81.4871930
  23.4066930  63.8549870  81.6004100  23.2894050  65.3355150  81.3068820
  26.6100420  64.8405330  71.2111070  26.3838000  64.1235770  71.8035710
  26.2196620  64.5917770  70.3732820  12.3916450  68.8672190  71.9855530
  12.7514090  69.4661530  71.3312800  12.2508790  69.4132080  72.7590560
  26.1916670  62.7577270  72.8725230  25.9038370  63.2189960  73.6603110
  26.9868840  62.2975040  73.1409450  18.4085070  66.2503390  72.8029200
  18.3995170  66.9833080  72.1873710  17.4883430  66.0034970  72.8956160
  14.0091710  61.4718280  73.5475960  13.4019660  62.2117180  73.5571260
  14.4841060  61.5617640  72.7214160  26.9486530  54.5926040  74.0320410
  26.3199690  54.6971710  73.3178640  26.4538450  54.8122820  74.8214290
  21.3944670  66.3131630  71.4654390  21.4956650  66.1095620  70.5356370
  20.4946410  66.0589910  71.6702170  18.9170560  56.8711990  75.4478290
  18.2086710  57.3398330  75.8891900  19.2015040  56.2134000  76.0823480
  22.9485990  53.5962650  76.8874080  22.8253770  53.6148780  75.9383590
  23.8970550  53.6441590  77.0072480  20.0362780  68.8317950  76.1602060
  20.2904280  68.7939340  75.2381430  19.0875260  68.7051280  76.1530310
  17.1205580  55.1797070  72.8229000  17.9696110  55.6167220  72.7569190
  16.7536850  55.4917330  73.6501060  26.0415360  59.7509830  77.7360570
  25.1005500  59.7660060  77.9108260  26.3559430  58.9645790  78.1820870
  16.0197000  61.4329430  71.2964530  16.7860270  61.3210790  71.8589960
  16.0971690  60.7367400  70.6441300  14.7143760  58.8654500  71.9797420
  14.7947350  57.9182010  72.0914820  15.6063510  59.1961380  72.0858080
  28.0440940  66.9218680  79.4114830  28.1688360  67.7449850  79.8838640
  28.9106500  66.7109410  79.0638980  15.5158470  69.0149890  79.0831960
  16.2520950  68.4665350  79.3540530  15.8999390  69.8805900  78.9437950
  12.4003950  65.0823460  74.9573470  11.4743730  65.3244600  74.9478880
  12.8660380  65.9097720  74.8358220  18.6260780  68.1880200  70.9057530
  19.4189390  68.4769030  70.4539320  18.1065130  67.7572370  70.2270010
  27.6790950  67.4150330  72.3294270  27.3932460  67.0015470  71.5148450
  27.4810500  68.3438040  72.2094790  19.1438180  63.4083610  70.7699880
  19.0388820  62.7935960  71.4961260  18.9762400  62.8849500  69.9862890
  22.3840910  62.4703640  71.3741870  21.8351010  62.9172940  72.0184610
  23.0060170  61.9652890  71.8979540  18.0516030  61.4294560  73.2707170
  18.4732450  61.2634430  74.1138560  18.1766870  60.6194790  72.7762310
  20.5643670  60.4532170  70.5184270  21.0849330  59.7381190  70.1525420
  21.2112070  61.0918040  70.8184780  16.9474930  57.5027790  70.2165330
  16.7463990  56.6395150  70.5778670  16.7766980  57.4161150  69.2786930
  24.4263240  52.3136020  72.7452210  24.7065530  51.4703920  73.1011630
  23.6528970  52.5459130  73.2590960  15.7457730  54.6028410  70.2043210
  16.0483630  54.6095840  69.2962360  16.4852320  54.2526270  70.7010870
  18.9642660  53.5463030  71.1899410  18.6164660  52.8687020  70.6101860
  19.1655430  53.0852540  72.0042800  21.1291700  68.5343780  72.8086010
  22.0242490  68.8728750  72.8304770  21.1609330  67.8123190  72.1810290
  14.7687860  63.9070830  71.0373010  15.2062730  64.4500500  71.6930590
  15.2535590  63.0817780  71.0469350  11.9833660  66.6959860  78.4893270
  12.3136670  65.8280920  78.2571910  12.4124660  66.9018380  79.3198230
  16.5795580  65.0268870  76.1495240  16.2791120  64.9033840  77.0499150
  16.4733070  64.1677460  75.7410970  29.3487500  64.8065270  70.8521920
  28.5180460  64.8741920  71.3229150  29.5259330  65.6969390  70.5488780
  28.8043960  61.5512750  73.3556120  29.5662870  62.1209400  73.4615810
  28.8198330  60.9839950  74.1264430  12.3048300  60.0750680  77.5863780
  11.6497140  59.8062320  76.9423480  13.1426250  59.9655160  77.1365760
  29.8103930  62.4062850  78.1998050  30.1812760  61.6230170  77.7934020
  30.4505860  63.0951950  78.0215350  28.8563130  61.8447120  70.5128640
  29.1311970  62.7526000  70.3847860  28.6673870  61.7809650  71.4490630
  25.2538740  54.8691970  71.8082270  25.6723620  54.6822950  70.9678930
  24.9474800  54.0171020  72.1185200  28.7528470  59.7816110  75.5058070
  28.3772070  59.0144040  75.0739360  28.0231590  60.1638810  75.9933000
  11.5186380  57.2849610  73.5289110  10.6150460  57.5479810  73.3540770
  12.0027000  57.5560780  72.7489070  28.0279430  58.0073600  78.8065310
  28.5516910  57.5136250  78.1755480  28.6138850  58.1423960  79.5512880
  14.0613590  56.3415150  71.4383490  14.7705290  55.9198370  70.9530770
  13.3453530  56.4090380  70.8066840  13.7087750  52.3954480  70.4786140
  14.4315880  52.9363420  70.7967360  13.9812270  52.1217900  69.6027680
  27.5179400  57.2646950  74.7457720  28.0138520  57.0317820  75.5306600
  27.3195470  56.4258790  74.3295360  13.3979940  51.6460670  80.3808760
  14.0456130  51.0958050  79.9403920  13.8181780  51.9003820  81.2024570
  28.9466560  55.9007900  77.2795400  28.8365840  55.7463940  78.2177670
  29.7074150  55.3728840  77.0370810  29.8356830  53.7315820  70.5201540
  30.7606140  53.5997000  70.3119830  29.8132620  53.8108640  71.4737990
  29.9095320  54.5026480  73.1458250  29.1146820  54.4371600  73.6751160
  30.1138600  55.4377120  73.1343600  26.8513740  68.5418030  77.1396640
  27.4472810  68.2202600  76.4631060  27.1091890  68.0689850  77.9309910
  27.4025950  69.1913330  80.9694370  26.9428920  69.9429140  80.5952390
  26.7738410  68.4719800  80.9109170  17.8321670  67.5001570  80.1442500
  18.3486690  66.8888930  79.6190760  18.4819050  68.0030350  80.6353510
  20.5717170  68.3910060  80.9711480  20.8594980  68.1364360  80.0944490
  21.0840390  67.8387420  81.5617050  21.7894180  52.1300260  81.5507990
  21.0065970  52.6045760  81.8304750  21.4957110  51.2255090  81.4421170
  26.3415250  52.8323360  79.5957080  26.7823340  52.7768460  78.7478680
  26.0722840  53.7481370  79.6667260  28.2053820  52.4638600  77.6065900
  28.1442220  51.5199820  77.4596920  28.9845850  52.5718690  78.1519360
  12.5106570  68.6030960  76.5689850  12.3428610  67.9701640  77.2671740
  11.6441080  68.8090360  76.2184040  13.1334590  52.4347740  74.0721710
  13.8913950  52.5476620  73.4985740  12.6711760  53.2716940  74.0265140
  19.6748400  54.5487010  77.0624020  18.8622910  54.1743900  76.7219900
  20.1790040  53.7932090  77.3645210  24.1773380  51.2129460  78.3007090
  24.7802750  51.7849670  78.7755610  23.4366370  51.7768900  78.0780990
  27.3207980  51.6151020  73.5747370  27.5158610  52.5134470  73.8414800
  26.5337850  51.3838100  74.0680320  14.1169270  67.2964190  74.0139990
  13.5916890  67.6772220  73.3101950  14.0413850  67.9214960  74.7349700
  15.5059740  52.9611790  72.6123680  16.0352500  52.1741590  72.4831630
  16.1388060  53.6402980  72.8459210  17.6997580  52.6986930  75.6669070
  17.0700320  51.9974240  75.8339200  17.1602720  53.4591060  75.4502230
  28.8734590  68.8551730  75.3353930  29.0486780  68.1689470  74.6914850
  28.1756160  69.3798780  74.9430600  16.7162240  69.2446570  72.8889240
  17.4481060  68.9605850  72.3413130  16.9755910  69.0059850  73.7788620
  15.8777030  65.3611300  72.8935570  15.2485910  65.8296400  73.4421400
  15.9924860  64.5160520  73.3281760  23.3326750  59.4116960  59.0436770
  23.2520800  58.4971570  58.7728480  22.9191170  59.9084030  58.3376480
  21.4644790  61.1895980  60.9246040  20.6886890  60.7096420  61.2144610
  22.1157720  60.5101630  60.7502200  15.4810620  61.5015790  61.8021800
  14.6495500  61.2464500  62.2018310  16.0891600  61.5726560  62.5379720
  25.4852220  65.5956170  59.7045170  25.0233750  64.8243410  60.0332340
  26.2977770  65.6222240  60.2097620  15.4611880  65.5355880  61.9979820
  15.7639920  64.6453620  61.8190040  16.2055470  66.0926100  61.7702070
  13.8902570  56.4617680  55.5864190  13.0019270  56.8033650  55.4844070
  14.1743760  56.2618000  54.6945020  11.8535580  59.0623330  61.4703890
  12.4251690  58.2945530  61.4707530  11.8537120  59.3612090  60.5610500
  21.7115530  67.8814180  59.3249160  21.0926970  68.3371680  58.7543600
  22.5667310  68.0365640  58.9238860  20.9053780  63.8653170  60.9316200
  20.8362060  62.9243110  60.7705330  21.6673640  63.9554580  61.5038770
  13.0960450  54.4707690  63.2572820  12.9163290  53.5733440  63.5375580
  12.6940530  55.0179560  63.9319770  21.9358950  56.6723550  61.1585130
  22.3123770  55.7995430  61.0458800  21.8378460  57.0082250  60.2675570
  16.0663960  55.0449180  56.6202570  16.1730710  55.9452910  56.9271330
  15.1556320  54.9967150  56.3297220  25.7183070  54.1673990  58.0913470
  26.5392690  53.6770560  58.1338950  25.7517150  54.7571650  58.8445310
  13.7147120  56.9668190  61.8655160  14.3957230  57.2306560  62.4842560
  13.3995170  56.1269060  62.1993170  17.9071690  58.0135550  60.9527750
  18.4149910  58.5116520  61.5932770  18.4384930  57.2370750  60.7767110
  30.0082620  56.1840740  64.6557100  29.3034790  56.5722450  64.1372210
  30.2740540  56.8791030  65.2578030  16.1907790  52.6534110  65.2191170
  16.1926230  53.1706500  64.4137070  15.3612100  52.1764290  65.1961100
  22.5778880  62.7653420  56.7181070  21.9596150  63.2302870  56.1543790
  23.0902130  63.4580900  57.1350580  17.4410640  62.2929290  63.3964670
  17.1080020  62.9198210  64.0385740  17.6177320  62.8191170  62.6166340
  25.9544550  56.1074370  60.8641010  25.2500120  56.3959260  61.4444120
  26.3156710  56.9174480  60.5040570  15.8723120  54.3644070  63.2261620
  16.2139930  55.2086120  62.9315490  14.9338930  54.5127810  63.3426960
  16.6529740  64.2610090  65.2113850  17.2703740  64.9361170  64.9298300
  15.7922860  64.6698070  65.1201350  11.9462080  63.4509950  54.0920700
  11.5690060  63.9397050  53.3605600  12.2035150  64.1235230  54.7227230
  27.5707330  65.7249500  63.1268490  26.8870850  66.3948610  63.1185160
  28.1101620  65.9230150  62.3613350  29.0231470  55.5529160  61.2550220
  28.0756380  55.5868140  61.3865650  29.3481460  56.3668110  61.6399580
  19.5551010  51.8526340  59.5506210  19.8625990  51.2973230  58.8341710
  18.6251710  51.9870800  59.3679200  25.1066070  67.5693630  61.8413670
  25.1193230  67.1655920  60.9735930  24.5541290  68.3440920  61.7375100
  26.4011490  64.2909850  56.9303840  26.2907820  63.3484180  57.0553260
  26.3979740  64.6525490  57.8166600  24.5051510  62.4723470  63.1696280
  24.9220300  62.2583580  62.3349740  25.2291330  62.7296260  63.7404900
  21.9431770  59.9175170  56.2866330  21.0161050  59.8512550  56.5154800
  22.0956590  60.8555300  56.1721570  21.9300850  56.1892170  53.2833490
  20.9904520  56.3506130  53.3685950  22.2484110  56.9077850  52.7369480
  28.4513610  60.8710690  63.2612520  27.6232240  60.9403780  62.7862650
  29.0464090  61.4565000  62.7928350  25.9729060  61.4795470  56.7901580
  25.3541480  61.1415020  56.1427880  25.9553510  60.8355230  57.4980770
  25.4155620  57.6580010  64.2067390  25.0026800  58.4833720  64.4607380
  24.6831570  57.0725050  64.0143750  17.5488410  60.4439910  59.0686060
  17.1445410  59.7317160  58.5731960  17.6351530  60.0993150  59.9574100
  18.0170110  64.1307470  61.2325270  17.7198400  63.5252940  60.5533050
  18.9669930  64.1684780  61.1214630  16.2617030  57.2183120  62.8485100
  16.8131620  57.3278460  62.0738350  16.7760540  57.5920720  63.5640330
  26.1055720  67.7039340  64.8948370  25.6286280  68.5111530  64.7020980
  25.4217510  67.0517670  65.0474580  17.1088540  63.8689160  67.8833070
  16.2117070  64.0929130  68.1306470  17.1341410  63.9924100  66.9344470
  24.1493760  60.7182280  53.7974330  24.5887040  59.8804710  53.6512150
  24.8622180  61.3511680  53.8838470  15.9359760  60.7402480  66.4590440
  15.7967530  61.6125280  66.8277840  15.0541120  60.3975290  66.3138380
  22.2589140  65.6578350  57.7655570  22.6985050  66.4002680  57.3510960
  22.1976030  65.9004920  58.6894530  17.7340110  66.6824180  68.6675590
  17.7055540  67.0867130  67.8004020  17.5705080  65.7534540  68.5047190
  27.7310900  51.9725090  52.1115370  27.4183560  52.0651920  53.0114440
  28.4923370  52.5506120  52.0612800  14.2493040  59.3384890  56.5692710
  14.1290640  60.0646980  55.9573980  13.9393930  58.5687800  56.0920620
  29.6854930  67.4651280  69.9639760  30.1614650  67.9434170  70.6428840
  30.3062090  67.3968770  69.2385260  11.8878410  62.5100030  62.3761350
  11.9658830  62.6448800  61.4317070  12.5020090  61.8015920  62.5689470
  13.1326040  64.2100220  58.7867530  12.7254120  64.3514810  57.9321130
  14.0239050  63.9260380  58.5838740  29.0888180  64.6564130  67.1239770
  29.2151240  64.4176010  66.2056950  29.1309560  63.8248670  67.5961850
  22.9504920  68.3592130  65.6934580  23.4649590  68.2700140  66.4957010
  22.1074000  68.7051830  65.9862490  24.9259320  68.6447470  55.1218580
  24.7660460  68.3550410  56.0200410  24.7606030  67.8687600  54.5863810
  17.4047700  68.4246000  56.8990200  17.2290180  67.5081540  56.6858000
  16.5503440  68.7833290  57.1388000  24.6285450  66.1535030  53.6816580
  23.9350610  66.1512320  53.0218860  25.3708310  65.7294350  53.2510750
  24.1935380  67.7797740  57.7565070  24.6492330  66.9987120  58.0703690
  24.5327900  68.4904560  58.3006250  28.9412190  56.7096590  68.0889510
  28.3256460  57.2176260  67.5604970  28.6208610  55.8094920  68.0315450
  11.9437930  63.5514200  64.9155810  12.1068970  63.0819560  64.0975180
  12.4090380  63.0437760  65.5804650  16.7156700  52.6819960  59.9516380
  16.2724850  53.4629500  59.6200900  17.2741690  53.0049850  60.6587320
  21.0026510  55.5488480  65.5551700  20.5405880  55.7571500  66.3671640
  20.6004620  54.7347830  65.2522370  26.0031020  56.7697430  66.6848360
  25.1524610  56.4703180  67.0057430  25.8432810  57.0139440  65.7732180
  23.0980730  58.2699180  68.7847150  23.4234140  57.4362930  68.4449380
  23.8861060  58.7927700  68.9325480  19.8315520  52.3030660  54.8322210
  19.2069700  52.2990530  55.5575520  19.7445640  51.4361620  54.4358180
  18.7532600  53.2267290  61.8105980  19.0504930  54.1330120  61.7298000
  19.3018160  52.7386070  61.1965550  16.5070920  57.8053530  57.6797630
  16.2811840  57.5890700  58.5844250  15.7263450  58.2381990  57.3343600
  23.7368680  57.8116900  56.2788280  23.1377570  58.5352700  56.0951900
  24.2848290  57.7493680  55.4964730  18.9470130  58.7039110  68.3457900
  18.8513730  57.7633840  68.1958300  19.7902110  58.9254180  67.9505970
  22.3433550  56.4480440  58.3091560  22.7363120  56.7652640  57.4960250
  22.7050400  55.5692320  58.4236080  14.0780670  55.1152780  66.4991680
  13.6844060  55.9627990  66.7064460  13.3899070  54.4779150  66.6900320
  20.6525720  55.1987750  69.5688420  19.9624040  55.0059950  70.2034510
  21.3958020  55.4822390  70.1012720  11.3797720  53.0381240  60.5321760
  11.0910770  53.6084100  61.2446740  12.1243480  52.5585690  60.8952990
  11.5667950  56.9801360  51.7424480  11.4842620  57.9232120  51.8839470
  11.2151010  56.8376270  50.8636830  22.9288690  59.0386190  62.4042340
  22.1969810  59.5473000  62.7532440  22.5313030  58.2216170  62.1031120
  19.3666080  55.7140390  60.8094830  19.3702140  55.2730340  59.9599370
  20.2617200  56.0357720  60.9166650  15.2168460  55.5966880  59.7689040
  14.8768510  56.0742110  60.5256090  14.4545780  55.1432000  59.4090140
  19.4286230  56.7152470  53.8001590  19.5499050  56.6738950  54.7487410
  19.0434740  57.5776620  53.6448320  23.3914600  54.4919870  61.8165280
  23.4087340  54.9428520  62.6607130  23.1430180  53.5925510  62.0298720
  18.4407730  59.0253610  53.1984890  17.8724630  58.5771860  52.5720800
  19.1496730  59.3846390  52.6650040  26.8185350  51.9052050  67.6551660
  27.1431120  51.1741710  68.1809640  26.8541860  51.5865690  66.7532650
  13.5176910  62.9265630  67.0751620  13.1331700  62.2859300  67.6734580
  13.8289100  63.6301750  67.6446350  19.6674050  59.7742170  62.5560240
  20.0344180  59.3000740  63.3021580  19.4779110  60.6483740  62.8968580
  12.5314540  54.5185860  58.6853710  12.2461460  54.1541530  59.5232330
  12.4693400  53.7866320  58.0716850  17.4573420  58.8150810  64.8744450
  17.1530490  59.6942790  65.0994810  18.4119880  58.8750600  64.9101890
  15.9855210  63.0211800  55.4711300  15.2117470  62.4809420  55.3110020
  16.7149840  62.5018410  55.1329060  26.7443190  62.0177160  61.2637690
  27.4642310  62.5132450  60.8733800  26.5425010  61.3395050  60.6191560
  22.2053130  53.4115120  55.4067080  21.3917740  52.9128290  55.3312390
  22.0115080  54.2513370  54.9903430  22.1261990  62.0886220  67.1506690
  22.0599300  61.1681890  66.8964280  21.4967130  62.1861660  67.8651330
  24.9201520  57.7834770  53.7029240  25.8081140  58.0952000  53.5280580
  24.8906610  56.9107020  53.3109820  16.0292610  62.6892180  59.1090110
  16.5471280  61.8860440  59.0547000  15.5776630  62.6271320  59.9506940
  20.9162110  63.9558460  54.3817410  21.2577810  64.7000690  53.8860730
  20.0874820  64.2689580  54.7442240  13.5137150  59.6553550  66.0215810
  13.1552090  60.3207400  66.6089150  13.2191710  58.8237100  66.3928430
  16.7150270  60.1137790  68.9055360  16.4150410  60.2594970  68.0083180
  17.4861510  59.5543080  68.8128750  22.0578720  64.9106790  66.9010490
  22.0723260  63.9787750  66.6829400  21.3503820  64.9966550  67.5400260
  27.1915790  59.0946610  53.1709100  27.1079510  59.5260830  52.3205540
  27.9109980  59.5544960  53.6035920  28.2689930  61.5514130  66.2479070
  27.5438120  62.1442910  66.0508460  28.7965390  61.5437670  65.4492440
  28.2203040  65.9488870  55.8991230  27.5779200  65.2944490  56.1734950
  27.8333700  66.3543960  55.1231900  23.7989520  63.2774300  59.7462920
  24.1513340  62.6802430  59.0864290  22.9151850  62.9518530  59.9171170
  19.8852800  64.0371990  57.1533330  20.5723930  64.5841200  57.5340920
  19.0985220  64.5812720  57.1882940  12.0245200  59.6544810  52.6450410
  12.8940050  59.9369610  52.9286330  11.5335520  60.4680680  52.5299220
  19.1880010  61.0418020  56.7658690  19.6442790  61.8523270  56.9918880
  18.8368220  60.7241160  57.5977180  21.4912620  66.5524360  63.9950990
  22.1354840  66.7583740  64.6724410  21.8542060  65.7912760  63.5421840
  15.0891790  51.3855670  57.2381210  14.9606420  51.3773570  58.1866130
  14.2653810  51.7238760  56.8872220  22.7644700  64.5556710  62.7128440
  23.4066930  63.8549870  62.8260610  23.2894050  65.3355150  62.5325330
  26.6100420  64.8405330  52.4367580  26.3838000  64.1235770  53.0292220
  26.2196620  64.5917770  51.5989330  24.5382320  65.3551610  65.9164500
  24.8738560  65.9418300  66.5942420  23.6182660  65.2244320  66.1462290
  12.3916450  68.8672190  53.2112040  12.7514090  69.4661530  52.5569310
  12.2508790  69.4132080  53.9847070  12.0885720  53.1446790  66.6987910
  11.3744240  53.3443710  67.3040520  12.5080760  52.3686360  67.0702710
  26.1916670  62.7577270  54.0981740  25.9038370  63.2189960  54.8859620
  26.9868840  62.2975040  54.3665960  12.3758310  67.1327050  67.6854440
  12.4849430  66.1921790  67.5449830  11.7238870  67.3981800  67.0368170
  20.3670900  65.4042940  69.0852560  20.0467770  64.6852180  69.6298250
  19.6929260  66.0798010  69.1588620  18.4085070  66.2503390  54.0285710
  18.3995170  66.9833080  53.4130220  17.4883430  66.0034970  54.1212670
  14.0091710  61.4718280  54.7732470  13.4019660  62.2117180  54.7827770
  14.4841060  61.5617640  53.9470670  23.5824500  55.6369100  64.4489360
  23.9505320  54.8164310  64.7768930  22.7222700  55.6970990  64.8645010
  26.9486530  54.5926040  55.2576920  26.3199690  54.6971710  54.5435150
  26.4538450  54.8122820  56.0470800  21.3944670  66.3131630  52.6910900
  21.4956650  66.1095620  51.7612880  20.4946410  66.0589910  52.8958680
  18.9170560  56.8711990  56.6734800  18.2086710  57.3398330  57.1148410
  19.2015040  56.2134000  57.3079990  20.5426490  58.2908690  64.6727330
  21.0411740  58.7654510  65.3379180  20.6849440  57.3672210  64.8797360
  22.9485990  53.5962650  58.1130590  22.8253770  53.6148780  57.1640100
  23.8970550  53.6441590  58.2328990  20.0362780  68.8317950  57.3858570
  20.2904280  68.7939340  56.4637940  19.0875260  68.7051280  57.3786820
  17.1205580  55.1797070  54.0485510  17.9696110  55.6167220  53.9825700
  16.7536850  55.4917330  54.8757570  27.7493350  54.5076650  65.5155720
  27.2466950  55.2482050  65.8549530  28.5650010  54.8960650  65.1992510
  26.0415360  59.7509830  58.9617080  25.1005500  59.7660060  59.1364770
  26.3559430  58.9645790  59.4077380  16.0197000  61.4329430  52.5221040
  16.7860270  61.3210790  53.0846470  16.0971690  60.7367400  51.8697810
  14.7143760  58.8654500  53.2053930  14.7947350  57.9182010  53.3171330
  15.6063510  59.1961380  53.3114590  28.0440940  66.9218680  60.6371340
  28.1688360  67.7449850  61.1095150  28.9106500  66.7109410  60.2895490
  15.5158470  69.0149890  60.3088470  16.2520950  68.4665350  60.5797040
  15.8999390  69.8805900  60.1694460  12.4003950  65.0823460  56.1829980
  11.4743730  65.3244600  56.1735390  12.8660380  65.9097720  56.0614730
  14.5216750  68.1995960  69.4974050  15.3229480  68.5208010  69.9109450
  14.0068570  67.8391540  70.2193960  18.6260780  68.1880200  52.1314040
  19.4189390  68.4769030  51.6795830  18.1065130  67.7572370  51.4526520
  23.3581380  64.3075830  69.4449460  22.7519540  64.3307430  68.7045210
  23.0535490  63.5758870  69.9816710  24.7881750  68.0356120  68.0558870
  25.7403500  67.9514140  68.0059110  24.6409970  68.6997830  68.7292660
  27.6790950  67.4150330  53.5550780  27.3932460  67.0015470  52.7404960
  27.4810500  68.3438040  53.4351300  12.2414560  60.6869420  68.4410100
  12.7453580  60.1076700  69.0126330  11.5021980  60.9709650  68.9786470
  19.1438180  63.4083610  51.9956390  19.0388820  62.7935960  52.7217770
  18.9762400  62.8849500  51.2119400  19.2952500  62.0940410  67.9745620
  18.5298170  62.6625410  67.8900290  19.4768460  61.8016620  67.0813850
  22.3840910  62.4703640  52.5998380  21.8351010  62.9172940  53.2441120
  23.0060170  61.9652890  53.1236050  26.4375850  63.8245740  68.5320640
  27.1785320  64.1621500  68.0288100  25.6748530  63.9937800  67.9790410
  14.2737640  58.8299010  69.3360170  14.3142980  58.5312880  70.2445400
  15.1283140  59.2306620  69.1767690  18.0516030  61.4294560  54.4963680
  18.4732450  61.2634430  55.3395070  18.1766870  60.6194790  54.0018820
  16.2143450  57.4091110  67.3034660  15.6839910  56.9182060  66.6758000
  16.8831520  57.8375310  66.7692590  20.5643670  60.4532170  51.7440780
  21.0849330  59.7381190  51.3781930  21.2112070  61.0918040  52.0441290
  25.1121510  61.8760570  67.0675850  25.5262530  62.0305650  67.9166270
  24.1772510  62.0015790  67.2301630  25.5843680  59.2156730  69.0715000
  26.1664450  58.4609050  68.9835480  25.7605450  59.7464170  68.2946480
  16.7015750  54.3753480  67.3831950  16.6072620  53.7574230  66.6582820
  16.1213140  55.1019770  67.1561860  19.4677190  52.9326720  64.4159340
  19.0194490  52.9550980  63.5704890  18.8342390  52.5345740  65.0129640
  19.8736740  61.8281050  65.0371780  20.2924850  62.6713780  64.8648020
  18.9545370  61.9653090  64.8078560  22.2100640  59.5597230  66.4209620
  22.3296850  58.9638370  67.1604460  23.0694640  59.5966920  66.0010920
  24.5488540  60.1134420  64.9972130  24.0223760  60.6377040  64.3937270
  24.8919880  60.7461810  65.6281860  16.9474930  57.5027790  51.4421840
  16.7463990  56.6395150  51.8035180  16.7766980  57.4161150  50.5043440
  17.7244160  68.1334060  66.1529510  17.1865250  68.8580120  65.8338210
  17.9778120  67.6564400  65.3626850  18.9769410  56.1018580  67.6785440
  19.5669100  55.7934430  68.3663260  18.1589650  55.6298330  67.8345340
  23.7962840  55.7184390  67.9118460  23.1078360  55.0565930  67.8468450
  24.5168860  55.2722660  68.3566920  24.4263240  52.3136020  53.9708720
  24.7065530  51.4703920  54.3268140  23.6528970  52.5459130  54.4847470
  15.7457730  54.6028410  51.4299720  16.0483630  54.6095840  50.5218870
  16.4852320  54.2526270  51.9267380  20.5806370  69.3685270  66.4116160
  20.5065070  70.2720410  66.7188530  19.6785210  69.0497170  66.3838230
  18.9642660  53.5463030  52.4155920  18.6164660  52.8687020  51.8358370
  19.1655430  53.0852540  53.2299310  21.1291700  68.5343780  54.0342520
  22.0242490  68.8728750  54.0561280  21.1609330  67.8123190  53.4066800
  14.7687860  63.9070830  52.2629520  15.2062730  64.4500500  52.9187100
  15.2535590  63.0817780  52.2725860  11.9833660  66.6959860  59.7149780
  12.3136670  65.8280920  59.4828420  12.4124660  66.9018380  60.5454740
  16.5795580  65.0268870  57.3751750  16.2791120  64.9033840  58.2755660
  16.4733070  64.1677460  56.9667480  12.4723870  67.5630450  62.4531410
  12.0354860  67.7431250  63.2855560  13.0401550  68.3205070  62.3113130
  28.1086050  67.0647450  66.7408720  27.5088040  67.1240010  65.9972640
  28.2379950  66.1252430  66.8705570  29.3487500  64.8065270  52.0778430
  28.5180460  64.8741920  52.5485660  29.5259330  65.6969390  51.7745290
  28.8043960  61.5512750  54.5812630  29.5662870  62.1209400  54.6872320
  28.8198330  60.9839950  55.3520940  12.3048300  60.0750680  58.8120290
  11.6497140  59.8062320  58.1679990  13.1426250  59.9655160  58.3622270
  29.8103930  62.4062850  59.4254560  30.1812760  61.6230170  59.0190530
  30.4505860  63.0951950  59.2471860  26.7937690  63.7899430  64.8384880
  25.9797530  64.2196590  65.1010670  27.2011890  64.4017840  64.2253930
  28.8563130  61.8447120  51.7385150  29.1311970  62.7526000  51.6104370
  28.6673870  61.7809650  52.6747140  25.2538740  54.8691970  53.0338780
  25.6723620  54.6822950  52.1935440  24.9474800  54.0171020  53.3441710
  28.7528470  59.7816110  56.7314580  28.3772070  59.0144040  56.2995870
  28.0231590  60.1638810  57.2189510  13.3424230  60.4603250  63.3523630
  13.7097270  60.3730650  64.2319650  12.7735050  59.6969800  63.2530490
  28.1428090  58.9287630  66.3654100  27.9114180  58.7000380  65.4652050
  28.4032640  59.8487180  66.3198990  12.8940230  57.3712340  67.2582050
  11.9996280  57.3379100  67.5975760  13.4337780  57.5699130  68.0233300
  26.5816160  54.1544060  69.1433800  27.4586340  54.1627460  69.5267800
  26.5937000  53.4174900  68.5326150  11.5186380  57.2849610  54.7545620
  10.6150460  57.5479810  54.5797280  12.0027000  57.5560780  53.9745580
  28.0279430  58.0073600  60.0321820  28.5516910  57.5136250  59.4011990
  28.6138850  58.1423960  60.7769390  28.2069150  58.0913470  63.5541370
  27.2571860  58.0577010  63.6686360  28.3882160  59.0013580  63.3191140
  14.0613590  56.3415150  52.6640000  14.7705290  55.9198370  52.1787280
  13.3453530  56.4090380  52.0323350  13.7087750  52.3954480  51.7042650
  14.4315880  52.9363420  52.0223870  13.9812270  52.1217900  50.8284190
  27.5179400  57.2646950  55.9714230  28.0138520  57.0317820  56.7563110
  27.3195470  56.4258790  55.5551870  13.3979940  51.6460670  61.6065270
  14.0456130  51.0958050  61.1660430  13.8181780  51.9003820  62.4281080
  28.9466560  55.9007900  58.5051910  28.8365840  55.7463940  59.4434180
  29.7074150  55.3728840  58.2627320  27.2932280  51.8402030  64.9634910
  27.9304500  52.4536170  65.3294100  27.4407170  51.8762690  64.0184140
  29.9095320  54.5026480  54.3714760  29.1146820  54.4371600  54.9007670
  30.1138600  55.4377120  54.3600110  26.8513740  68.5418030  58.3653150
  27.4472810  68.2202600  57.6887570  27.1091890  68.0689850  59.1566420
  13.1511940  51.8016340  64.3490590  12.8026760  52.2580160  65.1148770
  12.8199640  50.9073470  64.4313020  14.7576310  64.9735940  68.5143780
  14.7145940  64.6028850  69.3958240  14.8887320  65.9113510  68.6545600
  18.4582340  66.5295530  64.1153500  18.2173700  66.7970090  63.2284020
  19.3984980  66.7001260  64.1704360  20.6636760  52.9928220  67.8710010
  20.6025650  53.5850050  68.6205420  21.6037140  52.8854180  67.7260270
  23.3011320  52.6498280  67.5102300  23.9151730  52.9677570  66.8483380
  23.8460880  52.1646870  68.1298160  29.7186500  68.5489910  64.9164140
  29.2244780  68.9458780  64.1991270  29.1099790  67.9239120  65.3101420
  13.8232580  51.3292540  67.6241360  14.3715570  51.1480590  66.8607470
  13.8887890  50.5386650  68.1597670  14.5964340  67.9198190  65.6341560
  14.0024660  67.7882890  66.3731600  14.5888180  67.0836330  65.1683660
  24.0419360  51.2130420  63.8371590  23.1679200  51.5465530  63.6344520
  23.9330110  50.7403600  64.6623460  24.9491340  53.4201290  65.2213310
  24.6204700  52.6053050  64.8415040  25.8973640  53.3771100  65.0979000
  27.4025950  69.1913330  62.1950880  26.9428920  69.9429140  61.8208900
  26.7738410  68.4719800  62.1365680  14.2276570  65.2856570  64.5849600
  13.5010630  64.6661860  64.5175550  14.2885720  65.6797180  63.7147680
  17.8321670  67.5001570  61.3699010  18.3486690  66.8888930  60.8447270
  18.4819050  68.0030350  61.8610020  20.5717170  68.3910060  62.1967990
  20.8594980  68.1364360  61.3201000  21.0840390  67.8387420  62.7873560
  21.7894180  52.1300260  62.7764500  21.0065970  52.6045760  63.0561260
  21.4957110  51.2255090  62.6677680  26.3415250  52.8323360  60.8213590
  26.7823340  52.7768460  59.9735190  26.0722840  53.7481370  60.8923770
  28.2053820  52.4638600  58.8322410  28.1442220  51.5199820  58.6853430
  28.9845850  52.5718690  59.3775870  12.5106570  68.6030960  57.7946360
  12.3428610  67.9701640  58.4928250  11.6441080  68.8090360  57.4440550
  13.1334590  52.4347740  55.2978220  13.8913950  52.5476620  54.7242250
  12.6711760  53.2716940  55.2521650  19.6748400  54.5487010  58.2880530
  18.8622910  54.1743900  57.9476410  20.1790040  53.7932090  58.5901720
  24.1773380  51.2129460  59.5263600  24.7802750  51.7849670  60.0012120
  23.4366370  51.7768900  59.3037500  27.3207980  51.6151020  54.8003880
  27.5158610  52.5134470  55.0671310  26.5337850  51.3838100  55.2936830
  14.1169270  67.2964190  55.2396500  13.5916890  67.6772220  54.5358460
  14.0413850  67.9214960  55.9606210  15.5059740  52.9611790  53.8380190
  16.0352500  52.1741590  53.7088140  16.1388060  53.6402980  54.0715720
  17.6997580  52.6986930  56.8925580  17.0700320  51.9974240  57.0595710
  17.1602720  53.4591060  56.6758740  20.6389530  69.3126160  69.5636190
  21.5656840  69.0770430  69.6072150  20.6239960  70.1398160  69.0822220
  28.8734590  68.8551730  56.5610440  29.0486780  68.1689470  55.9171360
  28.1756160  69.3798780  56.1687110  17.8253140  51.9770910  69.3278070
  17.5437410  52.4804510  68.5638890  18.2072840  51.1792660  68.9620200
  16.7162240  69.2446570  54.1145750  17.4481060  68.9605850  53.5669640
  16.9755910  69.0059850  55.0045130  15.8777030  65.3611300  54.1192080
  15.2485910  65.8296400  54.6677910  15.9924860  64.5160520  54.5538270
  24.4268600  51.3924490  69.9058540  24.3134050  51.7119100  70.8010060
  25.2438340  51.7937000  69.6095820  27.2067090  68.5396020  69.3877230
  27.9992410  68.0445250  69.1803190  27.5000240  69.2186160  69.9952840
  23.3326750  59.4116960  40.2693280  23.2520800  58.4971570  39.9984990
  22.9191170  59.9084030  39.5632990  21.4644790  61.1895980  42.1502550
  20.6886890  60.7096420  42.4401120  22.1157720  60.5101630  41.9758710
  15.4810620  61.5015790  43.0278310  14.6495500  61.2464500  43.4274820
  16.0891600  61.5726560  43.7636230  25.4852220  65.5956170  40.9301680
  25.0233750  64.8243410  41.2588850  26.2977770  65.6222240  41.4354130
  15.4611880  65.5355880  43.2236330  15.7639920  64.6453620  43.0446550
  16.2055470  66.0926100  42.9958580  13.8902570  56.4617680  36.8120700
  13.0019270  56.8033650  36.7100580  14.1743760  56.2618000  35.9201530
  11.8535580  59.0623330  42.6960400  12.4251690  58.2945530  42.6964040
  11.8537120  59.3612090  41.7867010  21.7115530  67.8814180  40.5505670
  21.0926970  68.3371680  39.9800110  22.5667310  68.0365640  40.1495370
  20.9053780  63.8653170  42.1572710  20.8362060  62.9243110  41.9961840
  21.6673640  63.9554580  42.7295280  13.0960450  54.4707690  44.4829330
  12.9163290  53.5733440  44.7632090  12.6940530  55.0179560  45.1576280
  21.9358950  56.6723550  42.3841640  22.3123770  55.7995430  42.2715310
  21.8378460  57.0082250  41.4932080  16.0663960  55.0449180  37.8459080
  16.1730710  55.9452910  38.1527840  15.1556320  54.9967150  37.5553730
  25.7183070  54.1673990  39.3169980  26.5392690  53.6770560  39.3595460
  25.7517150  54.7571650  40.0701820  13.7147120  56.9668190  43.0911670
  14.3957230  57.2306560  43.7099070  13.3995170  56.1269060  43.4249680
  17.9071690  58.0135550  42.1784260  18.4149910  58.5116520  42.8189280
  18.4384930  57.2370750  42.0023620  30.0082620  56.1840740  45.8813610
  29.3034790  56.5722450  45.3628720  30.2740540  56.8791030  46.4834540
  16.1907790  52.6534110  46.4447680  16.1926230  53.1706500  45.6393580
  15.3612100  52.1764290  46.4217610  22.5778880  62.7653420  37.9437580
  21.9596150  63.2302870  37.3800300  23.0902130  63.4580900  38.3607090
  17.4410640  62.2929290  44.6221180  17.1080020  62.9198210  45.2642250
  17.6177320  62.8191170  43.8422850  25.9544550  56.1074370  42.0897520
  25.2500120  56.3959260  42.6700630  26.3156710  56.9174480  41.7297080
  15.8723120  54.3644070  44.4518130  16.2139930  55.2086120  44.1572000
  14.9338930  54.5127810  44.5683470  16.6529740  64.2610090  46.4370360
  17.2703740  64.9361170  46.1554810  15.7922860  64.6698070  46.3457860
  11.9462080  63.4509950  35.3177210  11.5690060  63.9397050  34.5862110
  12.2035150  64.1235230  35.9483740  27.5707330  65.7249500  44.3525000
  26.8870850  66.3948610  44.3441670  28.1101620  65.9230150  43.5869860
  29.0231470  55.5529160  42.4806730  28.0756380  55.5868140  42.6122160
  29.3481460  56.3668110  42.8656090  19.5551010  51.8526340  40.7762720
  19.8625990  51.2973230  40.0598220  18.6251710  51.9870800  40.5935710
  25.1066070  67.5693630  43.0670180  25.1193230  67.1655920  42.1992440
  24.5541290  68.3440920  42.9631610  26.4011490  64.2909850  38.1560350
  26.2907820  63.3484180  38.2809770  26.3979740  64.6525490  39.0423110
  24.5051510  62.4723470  44.3952790  24.9220300  62.2583580  43.5606250
  25.2291330  62.7296260  44.9661410  21.9431770  59.9175170  37.5122840
  21.0161050  59.8512550  37.7411310  22.0956590  60.8555300  37.3978080
  21.9300850  56.1892170  34.5090000  20.9904520  56.3506130  34.5942460
  22.2484110  56.9077850  33.9625990  28.4513610  60.8710690  44.4869030
  27.6232240  60.9403780  44.0119160  29.0464090  61.4565000  44.0184860
  25.9729060  61.4795470  38.0158090  25.3541480  61.1415020  37.3684390
  25.9553510  60.8355230  38.7237280  25.4155620  57.6580010  45.4323900
  25.0026800  58.4833720  45.6863890  24.6831570  57.0725050  45.2400260
  17.5488410  60.4439910  40.2942570  17.1445410  59.7317160  39.7988470
  17.6351530  60.0993150  41.1830610  18.0170110  64.1307470  42.4581780
  17.7198400  63.5252940  41.7789560  18.9669930  64.1684780  42.3471140
  16.2617030  57.2183120  44.0741610  16.8131620  57.3278460  43.2994860
  16.7760540  57.5920720  44.7896840  26.1055720  67.7039340  46.1204880
  25.6286280  68.5111530  45.9277490  25.4217510  67.0517670  46.2731090
  17.1088540  63.8689160  49.1089580  16.2117070  64.0929130  49.3562980
  17.1341410  63.9924100  48.1600980  24.1493760  60.7182280  35.0230840
  24.5887040  59.8804710  34.8768660  24.8622180  61.3511680  35.1094980
  15.9359760  60.7402480  47.6846950  15.7967530  61.6125280  48.0534350
  15.0541120  60.3975290  47.5394890  22.2589140  65.6578350  38.9912080
  22.6985050  66.4002680  38.5767470  22.1976030  65.9004920  39.9151040
  17.7340110  66.6824180  49.8932100  17.7055540  67.0867130  49.0260530
  17.5705080  65.7534540  49.7303700  27.7310900  51.9725090  33.3371880
  27.4183560  52.0651920  34.2370950  28.4923370  52.5506120  33.2869310
  14.2493040  59.3384890  37.7949220  14.1290640  60.0646980  37.1830490
  13.9393930  58.5687800  37.3177130  29.6854930  67.4651280  51.1896270
  30.1614650  67.9434170  51.8685350  30.3062090  67.3968770  50.4641770
  11.8878410  62.5100030  43.6017860  11.9658830  62.6448800  42.6573580
  12.5020090  61.8015920  43.7945980  13.1326040  64.2100220  40.0124040
  12.7254120  64.3514810  39.1577640  14.0239050  63.9260380  39.8095250
  29.0888180  64.6564130  48.3496280  29.2151240  64.4176010  47.4313460
  29.1309560  63.8248670  48.8218360  22.9504920  68.3592130  46.9191090
  23.4649590  68.2700140  47.7213520  22.1074000  68.7051830  47.2119000
  24.9259320  68.6447470  36.3475090  24.7660460  68.3550410  37.2456920
  24.7606030  67.8687600  35.8120320  17.4047700  68.4246000  38.1246710
  17.2290180  67.5081540  37.9114510  16.5503440  68.7833290  38.3644510
  24.6285450  66.1535030  34.9073090  23.9350610  66.1512320  34.2475370
  25.3708310  65.7294350  34.4767260  24.1935380  67.7797740  38.9821580
  24.6492330  66.9987120  39.2960200  24.5327900  68.4904560  39.5262760
  28.9412190  56.7096590  49.3146020  28.3256460  57.2176260  48.7861480
  28.6208610  55.8094920  49.2571960  11.9437930  63.5514200  46.1412320
  12.1068970  63.0819560  45.3231690  12.4090380  63.0437760  46.8061160
  16.7156700  52.6819960  41.1772890  16.2724850  53.4629500  40.8457410
  17.2741690  53.0049850  41.8843830  21.0026510  55.5488480  46.7808210
  20.5405880  55.7571500  47.5928150  20.6004620  54.7347830  46.4778880
  26.0031020  56.7697430  47.9104870  25.1524610  56.4703180  48.2313940
  25.8432810  57.0139440  46.9988690  23.0980730  58.2699180  50.0103660
  23.4234140  57.4362930  49.6705890  23.8861060  58.7927700  50.1581990
  19.8315520  52.3030660  36.0578720  19.2069700  52.2990530  36.7832030
  19.7445640  51.4361620  35.6614690  18.7532600  53.2267290  43.0362490
  19.0504930  54.1330120  42.9554510  19.3018160  52.7386070  42.4222060
  16.5070920  57.8053530  38.9054140  16.2811840  57.5890700  39.8100760
  15.7263450  58.2381990  38.5600110  23.7368680  57.8116900  37.5044790
  23.1377570  58.5352700  37.3208410  24.2848290  57.7493680  36.7221240
  18.9470130  58.7039110  49.5714410  18.8513730  57.7633840  49.4214810
  19.7902110  58.9254180  49.1762480  22.3433550  56.4480440  39.5348070
  22.7363120  56.7652640  38.7216760  22.7050400  55.5692320  39.6492590
  14.0780670  55.1152780  47.7248190  13.6844060  55.9627990  47.9320970
  13.3899070  54.4779150  47.9156830  20.6525720  55.1987750  50.7944930
  19.9624040  55.0059950  51.4291020  21.3958020  55.4822390  51.3269230
  11.3797720  53.0381240  41.7578270  11.0910770  53.6084100  42.4703250
  12.1243480  52.5585690  42.1209500  11.5667950  56.9801360  32.9680990
  11.4842620  57.9232120  33.1095980  11.2151010  56.8376270  32.0893340
  22.9288690  59.0386190  43.6298850  22.1969810  59.5473000  43.9788950
  22.5313030  58.2216170  43.3287630  19.3666080  55.7140390  42.0351340
  19.3702140  55.2730340  41.1855880  20.2617200  56.0357720  42.1423160
  15.2168460  55.5966880  40.9945550  14.8768510  56.0742110  41.7512600
  14.4545780  55.1432000  40.6346650  19.4286230  56.7152470  35.0258100
  19.5499050  56.6738950  35.9743920  19.0434740  57.5776620  34.8704830
  23.3914600  54.4919870  43.0421790  23.4087340  54.9428520  43.8863640
  23.1430180  53.5925510  43.2555230  18.4407730  59.0253610  34.4241400
  17.8724630  58.5771860  33.7977310  19.1496730  59.3846390  33.8906550
  26.8185350  51.9052050  48.8808170  27.1431120  51.1741710  49.4066150
  26.8541860  51.5865690  47.9789160  13.5176910  62.9265630  48.3008130
  13.1331700  62.2859300  48.8991090  13.8289100  63.6301750  48.8702860
  19.6674050  59.7742170  43.7816750  20.0344180  59.3000740  44.5278090
  19.4779110  60.6483740  44.1225090  12.5314540  54.5185860  39.9110220
  12.2461460  54.1541530  40.7488840  12.4693400  53.7866320  39.2973360
  17.4573420  58.8150810  46.1000960  17.1530490  59.6942790  46.3251320
  18.4119880  58.8750600  46.1358400  15.9855210  63.0211800  36.6967810
  15.2117470  62.4809420  36.5366530  16.7149840  62.5018410  36.3585570
  26.7443190  62.0177160  42.4894200  27.4642310  62.5132450  42.0990310
  26.5425010  61.3395050  41.8448070  22.2053130  53.4115120  36.6323590
  21.3917740  52.9128290  36.5568900  22.0115080  54.2513370  36.2159940
  22.1261990  62.0886220  48.3763200  22.0599300  61.1681890  48.1220790
  21.4967130  62.1861660  49.0907840  24.9201520  57.7834770  34.9285750
  25.8081140  58.0952000  34.7537090  24.8906610  56.9107020  34.5366330
  16.0292610  62.6892180  40.3346620  16.5471280  61.8860440  40.2803510
  15.5776630  62.6271320  41.1763450  20.9162110  63.9558460  35.6073920
  21.2577810  64.7000690  35.1117240  20.0874820  64.2689580  35.9698750
  13.5137150  59.6553550  47.2472320  13.1552090  60.3207400  47.8345660
  13.2191710  58.8237100  47.6184940  16.7150270  60.1137790  50.1311870
  16.4150410  60.2594970  49.2339690  17.4861510  59.5543080  50.0385260
  22.0578720  64.9106790  48.1267000  22.0723260  63.9787750  47.9085910
  21.3503820  64.9966550  48.7656770  27.1915790  59.0946610  34.3965610
  27.1079510  59.5260830  33.5462050  27.9109980  59.5544960  34.8292430
  28.2689930  61.5514130  47.4735580  27.5438120  62.1442910  47.2764970
  28.7965390  61.5437670  46.6748950  28.2203040  65.9488870  37.1247740
  27.5779200  65.2944490  37.3991460  27.8333700  66.3543960  36.3488410
  23.7989520  63.2774300  40.9719430  24.1513340  62.6802430  40.3120800
  22.9151850  62.9518530  41.1427680  19.8852800  64.0371990  38.3789840
  20.5723930  64.5841200  38.7597430  19.0985220  64.5812720  38.4139450
  12.0245200  59.6544810  33.8706920  12.8940050  59.9369610  34.1542840
  11.5335520  60.4680680  33.7555730  19.1880010  61.0418020  37.9915200
  19.6442790  61.8523270  38.2175390  18.8368220  60.7241160  38.8233690
  21.4912620  66.5524360  45.2207500  22.1354840  66.7583740  45.8980920
  21.8542060  65.7912760  44.7678350  15.0891790  51.3855670  38.4637720
  14.9606420  51.3773570  39.4122640  14.2653810  51.7238760  38.1128730
  22.7644700  64.5556710  43.9384950  23.4066930  63.8549870  44.0517120
  23.2894050  65.3355150  43.7581840  26.6100420  64.8405330  33.6624090
  26.3838000  64.1235770  34.2548730  26.2196620  64.5917770  32.8245840
  24.5382320  65.3551610  47.1421010  24.8738560  65.9418300  47.8198930
  23.6182660  65.2244320  47.3718800  12.3916450  68.8672190  34.4368550
  12.7514090  69.4661530  33.7825820  12.2508790  69.4132080  35.2103580
  12.0885720  53.1446790  47.9244420  11.3744240  53.3443710  48.5297030
  12.5080760  52.3686360  48.2959220  26.1916670  62.7577270  35.3238250
  25.9038370  63.2189960  36.1116130  26.9868840  62.2975040  35.5922470
  12.3758310  67.1327050  48.9110950  12.4849430  66.1921790  48.7706340
  11.7238870  67.3981800  48.2624680  20.3670900  65.4042940  50.3109070
  20.0467770  64.6852180  50.8554760  19.6929260  66.0798010  50.3845130
  18.4085070  66.2503390  35.2542220  18.3995170  66.9833080  34.6386730
  17.4883430  66.0034970  35.3469180  14.0091710  61.4718280  35.9988980
  13.4019660  62.2117180  36.0084280  14.4841060  61.5617640  35.1727180
  23.5824500  55.6369100  45.6745870  23.9505320  54.8164310  46.0025440
  22.7222700  55.6970990  46.0901520  26.9486530  54.5926040  36.4833430
  26.3199690  54.6971710  35.7691660  26.4538450  54.8122820  37.2727310
  21.3944670  66.3131630  33.9167410  21.4956650  66.1095620  32.9869390
  20.4946410  66.0589910  34.1215190  18.9170560  56.8711990  37.8991310
  18.2086710  57.3398330  38.3404920  19.2015040  56.2134000  38.5336500
  20.5426490  58.2908690  45.8983840  21.0411740  58.7654510  46.5635690
  20.6849440  57.3672210  46.1053870  22.9485990  53.5962650  39.3387100
  22.8253770  53.6148780  38.3896610  23.8970550  53.6441590  39.4585500
  20.0362780  68.8317950  38.6115080  20.2904280  68.7939340  37.6894450
  19.0875260  68.7051280  38.6043330  17.1205580  55.1797070  35.2742020
  17.9696110  55.6167220  35.2082210  16.7536850  55.4917330  36.1014080
  27.7493350  54.5076650  46.7412230  27.2466950  55.2482050  47.0806040
  28.5650010  54.8960650  46.4249020  26.0415360  59.7509830  40.1873590
  25.1005500  59.7660060  40.3621280  26.3559430  58.9645790  40.6333890
  16.0197000  61.4329430  33.7477550  16.7860270  61.3210790  34.3102980
  16.0971690  60.7367400  33.0954320  14.7143760  58.8654500  34.4310440
  14.7947350  57.9182010  34.5427840  15.6063510  59.1961380  34.5371100
  28.0440940  66.9218680  41.8627850  28.1688360  67.7449850  42.3351660
  28.9106500  66.7109410  41.5152000  15.5158470  69.0149890  41.5344980
  16.2520950  68.4665350  41.8053550  15.8999390  69.8805900  41.3950970
  12.4003950  65.0823460  37.4086490  11.4743730  65.3244600  37.3991900
  12.8660380  65.9097720  37.2871240  14.5216750  68.1995960  50.7230560
  15.3229480  68.5208010  51.1365960  14.0068570  67.8391540  51.4450470
  18.6260780  68.1880200  33.3570550  19.4189390  68.4769030  32.9052340
  18.1065130  67.7572370  32.6783030  23.3581380  64.3075830  50.6705970
  22.7519540  64.3307430  49.9301720  23.0535490  63.5758870  51.2073220
  24.7881750  68.0356120  49.2815380  25.7403500  67.9514140  49.2315620
  24.6409970  68.6997830  49.9549170  27.6790950  67.4150330  34.7807290
  27.3932460  67.0015470  33.9661470  27.4810500  68.3438040  34.6607810
  12.2414560  60.6869420  49.6666610  12.7453580  60.1076700  50.2382840
  11.5021980  60.9709650  50.2042980  19.1438180  63.4083610  33.2212900
  19.0388820  62.7935960  33.9474280  18.9762400  62.8849500  32.4375910
  19.2952500  62.0940410  49.2002130  18.5298170  62.6625410  49.1156800
  19.4768460  61.8016620  48.3070360  22.3840910  62.4703640  33.8254890
  21.8351010  62.9172940  34.4697630  23.0060170  61.9652890  34.3492560
  26.4375850  63.8245740  49.7577150  27.1785320  64.1621500  49.2544610
  25.6748530  63.9937800  49.2046920  14.2737640  58.8299010  50.5616680
  14.3142980  58.5312880  51.4701910  15.1283140  59.2306620  50.4024200
  18.0516030  61.4294560  35.7220190  18.4732450  61.2634430  36.5651580
  18.1766870  60.6194790  35.2275330  16.2143450  57.4091110  48.5291170
  15.6839910  56.9182060  47.9014510  16.8831520  57.8375310  47.9949100
  20.5643670  60.4532170  32.9697290  21.0849330  59.7381190  32.6038440
  21.2112070  61.0918040  33.2697800  25.1121510  61.8760570  48.2932360
  25.5262530  62.0305650  49.1422780  24.1772510  62.0015790  48.4558140
  25.5843680  59.2156730  50.2971510  26.1664450  58.4609050  50.2091990
  25.7605450  59.7464170  49.5202990  16.7015750  54.3753480  48.6088460
  16.6072620  53.7574230  47.8839330  16.1213140  55.1019770  48.3818370
  19.4677190  52.9326720  45.6415850  19.0194490  52.9550980  44.7961400
  18.8342390  52.5345740  46.2386150  19.8736740  61.8281050  46.2628290
  20.2924850  62.6713780  46.0904530  18.9545370  61.9653090  46.0335070
  22.2100640  59.5597230  47.6466130  22.3296850  58.9638370  48.3860970
  23.0694640  59.5966920  47.2267430  24.5488540  60.1134420  46.2228640
  24.0223760  60.6377040  45.6193780  24.8919880  60.7461810  46.8538370
  16.9474930  57.5027790  32.6678350  16.7463990  56.6395150  33.0291690
  16.7766980  57.4161150  31.7299950  17.7244160  68.1334060  47.3786020
  17.1865250  68.8580120  47.0594720  17.9778120  67.6564400  46.5883360
  18.9769410  56.1018580  48.9041950  19.5669100  55.7934430  49.5919770
  18.1589650  55.6298330  49.0601850  23.7962840  55.7184390  49.1374970
  23.1078360  55.0565930  49.0724960  24.5168860  55.2722660  49.5823430
  24.4263240  52.3136020  35.1965230  24.7065530  51.4703920  35.5524650
  23.6528970  52.5459130  35.7103980  15.7457730  54.6028410  32.6556230
  16.0483630  54.6095840  31.7475380  16.4852320  54.2526270  33.1523890
  20.5806370  69.3685270  47.6372670  20.5065070  70.2720410  47.9445040
  19.6785210  69.0497170  47.6094740  18.9642660  53.5463030  33.6412430
  18.6164660  52.8687020  33.0614880  19.1655430  53.0852540  34.4555820
  21.1291700  68.5343780  35.2599030  22.0242490  68.8728750  35.2817790
  21.1609330  67.8123190  34.6323310  14.7687860  63.9070830  33.4886030
  15.2062730  64.4500500  34.1443610  15.2535590  63.0817780  33.4982370
  11.9833660  66.6959860  40.9406290  12.3136670  65.8280920  40.7084930
  12.4124660  66.9018380  41.7711250  16.5795580  65.0268870  38.6008260
  16.2791120  64.9033840  39.5012170  16.4733070  64.1677460  38.1923990
  12.4723870  67.5630450  43.6787920  12.0354860  67.7431250  44.5112070
  13.0401550  68.3205070  43.5369640  28.1086050  67.0647450  47.9665230
  27.5088040  67.1240010  47.2229150  28.2379950  66.1252430  48.0962080
  29.3487500  64.8065270  33.3034940  28.5180460  64.8741920  33.7742170
  29.5259330  65.6969390  33.0001800  28.8043960  61.5512750  35.8069140
  29.5662870  62.1209400  35.9128830  28.8198330  60.9839950  36.5777450
  12.3048300  60.0750680  40.0376800  11.6497140  59.8062320  39.3936500
  13.1426250  59.9655160  39.5878780  29.8103930  62.4062850  40.6511070
  30.1812760  61.6230170  40.2447040  30.4505860  63.0951950  40.4728370
  26.7937690  63.7899430  46.0641390  25.9797530  64.2196590  46.3267180
  27.2011890  64.4017840  45.4510440  28.8563130  61.8447120  32.9641660
  29.1311970  62.7526000  32.8360880  28.6673870  61.7809650  33.9003650
  25.2538740  54.8691970  34.2595290  25.6723620  54.6822950  33.4191950
  24.9474800  54.0171020  34.5698220  28.7528470  59.7816110  37.9571090
  28.3772070  59.0144040  37.5252380  28.0231590  60.1638810  38.4446020
  13.3424230  60.4603250  44.5780140  13.7097270  60.3730650  45.4576160
  12.7735050  59.6969800  44.4787000  28.1428090  58.9287630  47.5910610
  27.9114180  58.7000380  46.6908560  28.4032640  59.8487180  47.5455500
  12.8940230  57.3712340  48.4838560  11.9996280  57.3379100  48.8232270
  13.4337780  57.5699130  49.2489810  26.5816160  54.1544060  50.3690310
  27.4586340  54.1627460  50.7524310  26.5937000  53.4174900  49.7582660
  11.5186380  57.2849610  35.9802130  10.6150460  57.5479810  35.8053790
  12.0027000  57.5560780  35.2002090  28.0279430  58.0073600  41.2578330
  28.5516910  57.5136250  40.6268500  28.6138850  58.1423960  42.0025900
  28.2069150  58.0913470  44.7797880  27.2571860  58.0577010  44.8942870
  28.3882160  59.0013580  44.5447650  14.0613590  56.3415150  33.8896510
  14.7705290  55.9198370  33.4043790  13.3453530  56.4090380  33.2579860
  13.7087750  52.3954480  32.9299160  14.4315880  52.9363420  33.2480380
  13.9812270  52.1217900  32.0540700  27.5179400  57.2646950  37.1970740
  28.0138520  57.0317820  37.9819620  27.3195470  56.4258790  36.7808380
  13.3979940  51.6460670  42.8321780  14.0456130  51.0958050  42.3916940
  13.8181780  51.9003820  43.6537590  28.9466560  55.9007900  39.7308420
  28.8365840  55.7463940  40.6690690  29.7074150  55.3728840  39.4883830
  29.9095320  54.5026480  35.5971270  29.1146820  54.4371600  36.1264180
  30.1138600  55.4377120  35.5856620  26.8513740  68.5418030  39.5909660
  27.4472810  68.2202600  38.9144080  27.1091890  68.0689850  40.3822930
  13.1511940  51.8016340  45.5747100  12.8026760  52.2580160  46.3405280
  12.8199640  50.9073470  45.6569530  14.7576310  64.9735940  49.7400290
  14.7145940  64.6028850  50.6214750  14.8887320  65.9113510  49.8802110
  18.4582340  66.5295530  45.3410010  18.2173700  66.7970090  44.4540530
  19.3984980  66.7001260  45.3960870  20.6636760  52.9928220  49.0966520
  20.6025650  53.5850050  49.8461930  21.6037140  52.8854180  48.9516780
  23.3011320  52.6498280  48.7358810  23.9151730  52.9677570  48.0739890
  23.8460880  52.1646870  49.3554670  29.7186500  68.5489910  46.1420650
  29.2244780  68.9458780  45.4247780  29.1099790  67.9239120  46.5357930
  13.8232580  51.3292540  48.8497870  14.3715570  51.1480590  48.0863980
  13.8887890  50.5386650  49.3854180  14.5964340  67.9198190  46.8598070
  14.0024660  67.7882890  47.5988110  14.5888180  67.0836330  46.3940170
  24.0419360  51.2130420  45.0628100  23.1679200  51.5465530  44.8601030
  23.9330110  50.7403600  45.8879970  24.9491340  53.4201290  46.4469820
  24.6204700  52.6053050  46.0671550  25.8973640  53.3771100  46.3235510
  27.4025950  69.1913330  43.4207390  26.9428920  69.9429140  43.0465410
  26.7738410  68.4719800  43.3622190  14.2276570  65.2856570  45.8106110
  13.5010630  64.6661860  45.7432060  14.2885720  65.6797180  44.9404190
  17.8321670  67.5001570  42.5955520  18.3486690  66.8888930  42.0703780
  18.4819050  68.0030350  43.0866530  20.5717170  68.3910060  43.4224500
  20.8594980  68.1364360  42.5457510  21.0840390  67.8387420  44.0130070
  21.7894180  52.1300260  44.0021010  21.0065970  52.6045760  44.2817770
  21.4957110  51.2255090  43.8934190  12.5106570  68.6030960  39.0202870
  12.3428610  67.9701640  39.7184760  11.6441080  68.8090360  38.6697060
  13.1334590  52.4347740  36.5234730  13.8913950  52.5476620  35.9498760
  12.6711760  53.2716940  36.4778160  19.6748400  54.5487010  39.5137040
  18.8622910  54.1743900  39.1732920  20.1790040  53.7932090  39.8158230
  27.3207980  51.6151020  36.0260390  27.5158610  52.5134470  36.2927820
  26.5337850  51.3838100  36.5193340  14.1169270  67.2964190  36.4653010
  13.5916890  67.6772220  35.7614970  14.0413850  67.9214960  37.1862720
  15.5059740  52.9611790  35.0636700  16.0352500  52.1741590  34.9344650
  16.1388060  53.6402980  35.2972230  17.6997580  52.6986930  38.1182090
  17.0700320  51.9974240  38.2852220  17.1602720  53.4591060  37.9015250
  20.6389530  69.3126160  50.7892700  21.5656840  69.0770430  50.8328660
  20.6239960  70.1398160  50.3078730  28.8734590  68.8551730  37.7866950
  29.0486780  68.1689470  37.1427870  28.1756160  69.3798780  37.3943620
  17.8253140  51.9770910  50.5534580  17.5437410  52.4804510  49.7895400
  18.2072840  51.1792660  50.1876710  16.7162240  69.2446570  35.3402260
  17.4481060  68.9605850  34.7926150  16.9755910  69.0059850  36.2301640
  15.8777030  65.3611300  35.3448590  15.2485910  65.8296400  35.8934420
  15.9924860  64.5160520  35.7794780  24.4268600  51.3924490  51.1315050
  24.3134050  51.7119100  52.0266570  25.2438340  51.7937000  50.8352330
  27.2067090  68.5396020  50.6133740  27.9992410  68.0445250  50.4059700
  27.5000240  69.2186160  51.2209350  21.4644790  61.1895980  23.3759060
  20.6886890  60.7096420  23.6657630  22.1157720  60.5101630  23.2015220
  15.4810620  61.5015790  24.2534820  14.6495500  61.2464500  24.6531330
  16.0891600  61.5726560  24.9892740  25.4852220  65.5956170  22.1558190
  25.0233750  64.8243410  22.4845360  26.2977770  65.6222240  22.6610640
  15.4611880  65.5355880  24.4492840  15.7639920  64.6453620  24.2703060
  16.2055470  66.0926100  24.2215090  13.8902570  56.4617680  18.0377210
  13.0019270  56.8033650  17.9357090  14.1743760  56.2618000  17.1458040
  11.8535580  59.0623330  23.9216910  12.4251690  58.2945530  23.9220550
  11.8537120  59.3612090  23.0123520  21.7115530  67.8814180  21.7762180
  21.0926970  68.3371680  21.2056620  22.5667310  68.0365640  21.3751880
  20.9053780  63.8653170  23.3829220  20.8362060  62.9243110  23.2218350
  21.6673640  63.9554580  23.9551790  13.0960450  54.4707690  25.7085840
  12.9163290  53.5733440  25.9888600  12.6940530  55.0179560  26.3832790
  16.0663960  55.0449180  19.0715590  16.1730710  55.9452910  19.3784350
  15.1556320  54.9967150  18.7810240  13.7147120  56.9668190  24.3168180
  14.3957230  57.2306560  24.9355580  13.3995170  56.1269060  24.6506190
  17.9071690  58.0135550  23.4040770  18.4149910  58.5116520  24.0445790
  18.4384930  57.2370750  23.2280130  16.1907790  52.6534110  27.6704190
  16.1926230  53.1706500  26.8650090  15.3612100  52.1764290  27.6474120
  22.5778880  62.7653420  19.1694090  21.9596150  63.2302870  18.6056810
  23.0902130  63.4580900  19.5863600  17.4410640  62.2929290  25.8477690
  17.1080020  62.9198210  26.4898760  17.6177320  62.8191170  25.0679360
  15.8723120  54.3644070  25.6774640  16.2139930  55.2086120  25.3828510
  14.9338930  54.5127810  25.7939980  16.6529740  64.2610090  27.6626870
  17.2703740  64.9361170  27.3811320  15.7922860  64.6698070  27.5714370
  11.9462080  63.4509950  16.5433720  11.5690060  63.9397050  15.8118620
  12.2035150  64.1235230  17.1740250  27.5707330  65.7249500  25.5781510
  26.8870850  66.3948610  25.5698180  28.1101620  65.9230150  24.8126370
  19.5551010  51.8526340  22.0019230  19.8625990  51.2973230  21.2854730
  18.6251710  51.9870800  21.8192220  25.1066070  67.5693630  24.2926690
  25.1193230  67.1655920  23.4248950  24.5541290  68.3440920  24.1888120
  26.4011490  64.2909850  19.3816860  26.2907820  63.3484180  19.5066280
  26.3979740  64.6525490  20.2679620  24.5051510  62.4723470  25.6209300
  24.9220300  62.2583580  24.7862760  25.2291330  62.7296260  26.1917920
  21.9431770  59.9175170  18.7379350  21.0161050  59.8512550  18.9667820
  22.0956590  60.8555300  18.6234590  21.9300850  56.1892170  15.7346510
  20.9904520  56.3506130  15.8198970  22.2484110  56.9077850  15.1882500
  25.9729060  61.4795470  19.2414600  25.3541480  61.1415020  18.5940900
  25.9553510  60.8355230  19.9493790  17.5488410  60.4439910  21.5199080
  17.1445410  59.7317160  21.0244980  17.6351530  60.0993150  22.4087120
  18.0170110  64.1307470  23.6838290  17.7198400  63.5252940  23.0046070
  18.9669930  64.1684780  23.5727650  16.2617030  57.2183120  25.2998120
  16.8131620  57.3278460  24.5251370  16.7760540  57.5920720  26.0153350
  26.1055720  67.7039340  27.3461390  25.6286280  68.5111530  27.1534000
  25.4217510  67.0517670  27.4987600  17.1088540  63.8689160  30.3346090
  16.2117070  64.0929130  30.5819490  17.1341410  63.9924100  29.3857490
  24.1493760  60.7182280  16.2487350  24.5887040  59.8804710  16.1025170
  24.8622180  61.3511680  16.3351490  15.9359760  60.7402480  28.9103460
  15.7967530  61.6125280  29.2790860  15.0541120  60.3975290  28.7651400
  22.2589140  65.6578350  20.2168590  22.6985050  66.4002680  19.8023980
  22.1976030  65.9004920  21.1407550  17.7340110  66.6824180  31.1188610
  17.7055540  67.0867130  30.2517040  17.5705080  65.7534540  30.9560210
  14.2493040  59.3384890  19.0205730  14.1290640  60.0646980  18.4087000
  13.9393930  58.5687800  18.5433640  29.6854930  67.4651280  32.4152780
  30.1614650  67.9434170  33.0941860  30.3062090  67.3968770  31.6898280
  11.8878410  62.5100030  24.8274370  11.9658830  62.6448800  23.8830090
  12.5020090  61.8015920  25.0202490  13.1326040  64.2100220  21.2380550
  12.7254120  64.3514810  20.3834150  14.0239050  63.9260380  21.0351760
  29.0888180  64.6564130  29.5752790  29.2151240  64.4176010  28.6569970
  29.1309560  63.8248670  30.0474870  22.9504920  68.3592130  28.1447600
  23.4649590  68.2700140  28.9470030  22.1074000  68.7051830  28.4375510
  24.9259320  68.6447470  17.5731600  24.7660460  68.3550410  18.4713430
  24.7606030  67.8687600  17.0376830  17.4047700  68.4246000  19.3503220
  17.2290180  67.5081540  19.1371020  16.5503440  68.7833290  19.5901020
  24.6285450  66.1535030  16.1329600  23.9350610  66.1512320  15.4731880
  25.3708310  65.7294350  15.7023770  24.1935380  67.7797740  20.2078090
  24.6492330  66.9987120  20.5216710  24.5327900  68.4904560  20.7519270
  28.9412190  56.7096590  30.5402530  28.3256460  57.2176260  30.0117990
  28.6208610  55.8094920  30.4828470  11.9437930  63.5514200  27.3668830
  12.1068970  63.0819560  26.5488200  12.4090380  63.0437760  28.0317670
  16.7156700  52.6819960  22.4029400  16.2724850  53.4629500  22.0713920
  17.2741690  53.0049850  23.1100340  21.0026510  55.5488480  28.0064720
  20.5405880  55.7571500  28.8184660  20.6004620  54.7347830  27.7035390
  23.0980730  58.2699180  31.2360170  23.4234140  57.4362930  30.8962400
  23.8861060  58.7927700  31.3838500  19.8315520  52.3030660  17.2835230
  19.2069700  52.2990530  18.0088540  19.7445640  51.4361620  16.8871200
  18.7532600  53.2267290  24.2619000  19.0504930  54.1330120  24.1811020
  19.3018160  52.7386070  23.6478570  16.5070920  57.8053530  20.1310650
  16.2811840  57.5890700  21.0357270  15.7263450  58.2381990  19.7856620
  18.9470130  58.7039110  30.7970920  18.8513730  57.7633840  30.6471320
  19.7902110  58.9254180  30.4018990  14.0780670  55.1152780  28.9504700
  13.6844060  55.9627990  29.1577480  13.3899070  54.4779150  29.1413340
  20.6525720  55.1987750  32.0201440  19.9624040  55.0059950  32.6547530
  21.3958020  55.4822390  32.5525740  11.3797720  53.0381240  22.9834780
  11.0910770  53.6084100  23.6959760  12.1243480  52.5585690  23.3466010
  11.5667950  56.9801360  14.1937500  11.4842620  57.9232120  14.3352490
  11.2151010  56.8376270  13.3149850  22.9288690  59.0386190  24.8555360
  22.1969810  59.5473000  25.2045460  22.5313030  58.2216170  24.5544140
  19.3666080  55.7140390  23.2607850  19.3702140  55.2730340  22.4112390
  20.2617200  56.0357720  23.3679670  15.2168460  55.5966880  22.2202060
  14.8768510  56.0742110  22.9769110  14.4545780  55.1432000  21.8603160
  19.4286230  56.7152470  16.2514610  19.5499050  56.6738950  17.2000430
  19.0434740  57.5776620  16.0961340  18.4407730  59.0253610  15.6497910
  17.8724630  58.5771860  15.0233820  19.1496730  59.3846390  15.1163060
  13.5176910  62.9265630  29.5264640  13.1331700  62.2859300  30.1247600
  13.8289100  63.6301750  30.0959370  19.6674050  59.7742170  25.0073260
  20.0344180  59.3000740  25.7534600  19.4779110  60.6483740  25.3481600
  12.5314540  54.5185860  21.1366730  12.2461460  54.1541530  21.9745350
  12.4693400  53.7866320  20.5229870  17.4573420  58.8150810  27.3257470
  17.1530490  59.6942790  27.5507830  18.4119880  58.8750600  27.3614910
  15.9855210  63.0211800  17.9224320  15.2117470  62.4809420  17.7623040
  16.7149840  62.5018410  17.5842080  26.7443190  62.0177160  23.7150710
  27.4642310  62.5132450  23.3246820  26.5425010  61.3395050  23.0704580
  22.2053130  53.4115120  17.8580100  21.3917740  52.9128290  17.7825410
  22.0115080  54.2513370  17.4416450  22.1261990  62.0886220  29.6019710
  22.0599300  61.1681890  29.3477300  21.4967130  62.1861660  30.3164350
  24.9201520  57.7834770  16.1542260  25.8081140  58.0952000  15.9793600
  24.8906610  56.9107020  15.7622840  16.0292610  62.6892180  21.5603130
  16.5471280  61.8860440  21.5060020  15.5776630  62.6271320  22.4019960
  20.9162110  63.9558460  16.8330430  21.2577810  64.7000690  16.3373750
  20.0874820  64.2689580  17.1955260  13.5137150  59.6553550  28.4728830
  13.1552090  60.3207400  29.0602170  13.2191710  58.8237100  28.8441450
  16.7150270  60.1137790  31.3568380  16.4150410  60.2594970  30.4596200
  17.4861510  59.5543080  31.2641770  22.0578720  64.9106790  29.3523510
  22.0723260  63.9787750  29.1342420  21.3503820  64.9966550  29.9913280
  27.1915790  59.0946610  15.6222120  27.1079510  59.5260830  14.7718560
  27.9109980  59.5544960  16.0548940  28.2203040  65.9488870  18.3504250
  27.5779200  65.2944490  18.6247970  27.8333700  66.3543960  17.5744920
  23.7989520  63.2774300  22.1975940  24.1513340  62.6802430  21.5377310
  22.9151850  62.9518530  22.3684190  19.8852800  64.0371990  19.6046350
  20.5723930  64.5841200  19.9853940  19.0985220  64.5812720  19.6395960
  12.0245200  59.6544810  15.0963430  12.8940050  59.9369610  15.3799350
  11.5335520  60.4680680  14.9812240  19.1880010  61.0418020  19.2171710
  19.6442790  61.8523270  19.4431900  18.8368220  60.7241160  20.0490200
  21.4912620  66.5524360  26.4464010  22.1354840  66.7583740  27.1237430
  21.8542060  65.7912760  25.9934860  15.0891790  51.3855670  19.6894230
  14.9606420  51.3773570  20.6379150  14.2653810  51.7238760  19.3385240
  22.7644700  64.5556710  25.1641460  23.4066930  63.8549870  25.2773630
  23.2894050  65.3355150  24.9838350  26.6100420  64.8405330  14.8880600
  26.3838000  64.1235770  15.4805240  26.2196620  64.5917770  14.0502350
  24.5382320  65.3551610  28.3677520  24.8738560  65.9418300  29.0455440
  23.6182660  65.2244320  28.5975310  12.3916450  68.8672190  15.6625060
  12.7514090  69.4661530  15.0082330  12.2508790  69.4132080  16.4360090
  12.0885720  53.1446790  29.1500930  11.3744240  53.3443710  29.7553540
  12.5080760  52.3686360  29.5215730  26.1916670  62.7577270  16.5494760
  25.9038370  63.2189960  17.3372640  26.9868840  62.2975040  16.8178980
  12.3758310  67.1327050  30.1367460  12.4849430  66.1921790  29.9962850
  11.7238870  67.3981800  29.4881190  20.3670900  65.4042940  31.5365580
  20.0467770  64.6852180  32.0811270  19.6929260  66.0798010  31.6101640
  18.4085070  66.2503390  16.4798730  18.3995170  66.9833080  15.8643240
  17.4883430  66.0034970  16.5725690  14.0091710  61.4718280  17.2245490
  13.4019660  62.2117180  17.2340790  14.4841060  61.5617640  16.3983690
  21.3944670  66.3131630  15.1423920  21.4956650  66.1095620  14.2125900
  20.4946410  66.0589910  15.3471700  18.9170560  56.8711990  19.1247820
  18.2086710  57.3398330  19.5661430  19.2015040  56.2134000  19.7593010
  20.5426490  58.2908690  27.1240350  21.0411740  58.7654510  27.7892200
  20.6849440  57.3672210  27.3310380  20.0362780  68.8317950  19.8371590
  20.2904280  68.7939340  18.9150960  19.0875260  68.7051280  19.8299840
  17.1205580  55.1797070  16.4998530  17.9696110  55.6167220  16.4338720
  16.7536850  55.4917330  17.3270590  16.0197000  61.4329430  14.9734060
  16.7860270  61.3210790  15.5359490  16.0971690  60.7367400  14.3210830
  14.7143760  58.8654500  15.6566950  14.7947350  57.9182010  15.7684350
  15.6063510  59.1961380  15.7627610  28.0440940  66.9218680  23.0884360
  28.1688360  67.7449850  23.5608170  28.9106500  66.7109410  22.7408510
  15.5158470  69.0149890  22.7601490  16.2520950  68.4665350  23.0310060
  15.8999390  69.8805900  22.6207480  12.4003950  65.0823460  18.6343000
  11.4743730  65.3244600  18.6248410  12.8660380  65.9097720  18.5127750
  14.5216750  68.1995960  31.9487070  15.3229480  68.5208010  32.3622470
  14.0068570  67.8391540  32.6706980  18.6260780  68.1880200  14.5827060
  19.4189390  68.4769030  14.1308850  18.1065130  67.7572370  13.9039540
  23.3581380  64.3075830  31.8962480  22.7519540  64.3307430  31.1558230
  23.0535490  63.5758870  32.4329730  24.7881750  68.0356120  30.5071890
  25.7403500  67.9514140  30.4572130  24.6409970  68.6997830  31.1805680
  27.6790950  67.4150330  16.0063800  27.3932460  67.0015470  15.1917980
  27.4810500  68.3438040  15.8864320  12.2414560  60.6869420  30.8923120
  12.7453580  60.1076700  31.4639350  11.5021980  60.9709650  31.4299490
  19.1438180  63.4083610  14.4469410  19.0388820  62.7935960  15.1730790
  18.9762400  62.8849500  13.6632420  19.2952500  62.0940410  30.4258640
  18.5298170  62.6625410  30.3413310  19.4768460  61.8016620  29.5326870
  22.3840910  62.4703640  15.0511400  21.8351010  62.9172940  15.6954140
  23.0060170  61.9652890  15.5749070  26.4375850  63.8245740  30.9833660
  27.1785320  64.1621500  30.4801120  25.6748530  63.9937800  30.4303430
  14.2737640  58.8299010  31.7873190  14.3142980  58.5312880  32.6958420
  15.1283140  59.2306620  31.6280710  18.0516030  61.4294560  16.9476700
  18.4732450  61.2634430  17.7908090  18.1766870  60.6194790  16.4531840
  16.2143450  57.4091110  29.7547680  15.6839910  56.9182060  29.1271020
  16.8831520  57.8375310  29.2205610  20.5643670  60.4532170  14.1953800
  21.0849330  59.7381190  13.8294950  21.2112070  61.0918040  14.4954310
  25.1121510  61.8760570  29.5188870  25.5262530  62.0305650  30.3679290
  24.1772510  62.0015790  29.6814650  25.5843680  59.2156730  31.5228020
  26.1664450  58.4609050  31.4348500  25.7605450  59.7464170  30.7459500
  16.7015750  54.3753480  29.8344970  16.6072620  53.7574230  29.1095840
  16.1213140  55.1019770  29.6074880  19.4677190  52.9326720  26.8672360
  19.0194490  52.9550980  26.0217910  18.8342390  52.5345740  27.4642660
  19.8736740  61.8281050  27.4884800  20.2924850  62.6713780  27.3161040
  18.9545370  61.9653090  27.2591580  22.2100640  59.5597230  28.8722640
  22.3296850  58.9638370  29.6117480  23.0694640  59.5966920  28.4523940
  24.5488540  60.1134420  27.4485150  24.0223760  60.6377040  26.8450290
  24.8919880  60.7461810  28.0794880  16.9474930  57.5027790  13.8934860
  16.7463990  56.6395150  14.2548200  16.7766980  57.4161150  12.9556460
  17.7244160  68.1334060  28.6042530  17.1865250  68.8580120  28.2851230
  17.9778120  67.6564400  27.8139870  18.9769410  56.1018580  30.1298460
  19.5669100  55.7934430  30.8176280  18.1589650  55.6298330  30.2858360
  23.7962840  55.7184390  30.3631480  23.1078360  55.0565930  30.2981470
  24.5168860  55.2722660  30.8079940  15.7457730  54.6028410  13.8812740
  16.0483630  54.6095840  12.9731890  16.4852320  54.2526270  14.3780400
  20.5806370  69.3685270  28.8629180  20.5065070  70.2720410  29.1701550
  19.6785210  69.0497170  28.8351250  18.9642660  53.5463030  14.8668940
  18.6164660  52.8687020  14.2871390  19.1655430  53.0852540  15.6812330
  21.1291700  68.5343780  16.4855540  22.0242490  68.8728750  16.5074300
  21.1609330  67.8123190  15.8579820  14.7687860  63.9070830  14.7142540
  15.2062730  64.4500500  15.3700120  15.2535590  63.0817780  14.7238880
  11.9833660  66.6959860  22.1662800  12.3136670  65.8280920  21.9341440
  12.4124660  66.9018380  22.9967760  16.5795580  65.0268870  19.8264770
  16.2791120  64.9033840  20.7268680  16.4733070  64.1677460  19.4180500
  12.4723870  67.5630450  24.9044430  12.0354860  67.7431250  25.7368580
  13.0401550  68.3205070  24.7626150  28.1086050  67.0647450  29.1921740
  27.5088040  67.1240010  28.4485660  28.2379950  66.1252430  29.3218590
  29.3487500  64.8065270  14.5291450  28.5180460  64.8741920  14.9998680
  29.5259330  65.6969390  14.2258310  28.8043960  61.5512750  17.0325650
  29.5662870  62.1209400  17.1385340  28.8198330  60.9839950  17.8033960
  12.3048300  60.0750680  21.2633310  11.6497140  59.8062320  20.6193010
  13.1426250  59.9655160  20.8135290  29.8103930  62.4062850  21.8767580
  30.1812760  61.6230170  21.4703550  30.4505860  63.0951950  21.6984880
  26.7937690  63.7899430  27.2897900  25.9797530  64.2196590  27.5523690
  27.2011890  64.4017840  26.6766950  28.8563130  61.8447120  14.1898170
  29.1311970  62.7526000  14.0617390  28.6673870  61.7809650  15.1260160
  28.7528470  59.7816110  19.1827600  28.3772070  59.0144040  18.7508890
  28.0231590  60.1638810  19.6702530  13.3424230  60.4603250  25.8036650
  13.7097270  60.3730650  26.6832670  12.7735050  59.6969800  25.7043510
  12.8940230  57.3712340  29.7095070  11.9996280  57.3379100  30.0488780
  13.4337780  57.5699130  30.4746320  26.5816160  54.1544060  31.5946820
  27.4586340  54.1627460  31.9780820  26.5937000  53.4174900  30.9839170
  11.5186380  57.2849610  17.2058640  10.6150460  57.5479810  17.0310300
  12.0027000  57.5560780  16.4258600  14.0613590  56.3415150  15.1153020
  14.7705290  55.9198370  14.6300300  13.3453530  56.4090380  14.4836370
  13.7087750  52.3954480  14.1555670  14.4315880  52.9363420  14.4736890
  13.9812270  52.1217900  13.2797210  13.3979940  51.6460670  24.0578290
  14.0456130  51.0958050  23.6173450  13.8181780  51.9003820  24.8794100
  26.8513740  68.5418030  20.8166170  27.4472810  68.2202600  20.1400590
  27.1091890  68.0689850  21.6079440  13.1511940  51.8016340  26.8003610
  12.8026760  52.2580160  27.5661790  12.8199640  50.9073470  26.8826040
  14.7576310  64.9735940  30.9656800  14.7145940  64.6028850  31.8471260
  14.8887320  65.9113510  31.1058620  18.4582340  66.5295530  26.5666520
  18.2173700  66.7970090  25.6797040  19.3984980  66.7001260  26.6217380
  20.6636760  52.9928220  30.3223030  20.6025650  53.5850050  31.0718440
  21.6037140  52.8854180  30.1773290  23.3011320  52.6498280  29.9615320
  23.9151730  52.9677570  29.2996400  23.8460880  52.1646870  30.5811180
  29.7186500  68.5489910  27.3677160  29.2244780  68.9458780  26.6504290
  29.1099790  67.9239120  27.7614440  13.8232580  51.3292540  30.0754380
  14.3715570  51.1480590  29.3120490  13.8887890  50.5386650  30.6110690
  14.5964340  67.9198190  28.0854580  14.0024660  67.7882890  28.8244620
  14.5888180  67.0836330  27.6196680  27.4025950  69.1913330  24.6463900
  26.9428920  69.9429140  24.2721920  26.7738410  68.4719800  24.5878700
  14.2276570  65.2856570  27.0362620  13.5010630  64.6661860  26.9688570
  14.2885720  65.6797180  26.1660700  17.8321670  67.5001570  23.8212030
  18.3486690  66.8888930  23.2960290  18.4819050  68.0030350  24.3123040
  20.5717170  68.3910060  24.6481010  20.8594980  68.1364360  23.7714020
  21.0840390  67.8387420  25.2386580  21.7894180  52.1300260  25.2277520
  21.0065970  52.6045760  25.5074280  21.4957110  51.2255090  25.1190700
  12.5106570  68.6030960  20.2459380  12.3428610  67.9701640  20.9441270
  11.6441080  68.8090360  19.8953570  13.1334590  52.4347740  17.7491240
  13.8913950  52.5476620  17.1755270  12.6711760  53.2716940  17.7034670
  19.6748400  54.5487010  20.7393550  18.8622910  54.1743900  20.3989430
  20.1790040  53.7932090  21.0414740  14.1169270  67.2964190  17.6909520
  13.5916890  67.6772220  16.9871480  14.0413850  67.9214960  18.4119230
  15.5059740  52.9611790  16.2893210  16.0352500  52.1741590  16.1601160
  16.1388060  53.6402980  16.5228740  17.6997580  52.6986930  19.3438600
  17.0700320  51.9974240  19.5108730  17.1602720  53.4591060  19.1271760
  20.6389530  69.3126160  32.0149210  21.5656840  69.0770430  32.0585170
  20.6239960  70.1398160  31.5335240  28.8734590  68.8551730  19.0123460
  29.0486780  68.1689470  18.3684380  28.1756160  69.3798780  18.6200130
  17.8253140  51.9770910  31.7791090  17.5437410  52.4804510  31.0151910
  18.2072840  51.1792660  31.4133220  16.7162240  69.2446570  16.5658770
  17.4481060  68.9605850  16.0182660  16.9755910  69.0059850  17.4558150
  15.8777030  65.3611300  16.5705100  15.2485910  65.8296400  17.1190930
  15.9924860  64.5160520  17.0051290  24.4268600  51.3924490  32.3571560
  24.3134050  51.7119100  33.2523080  25.2438340  51.7937000  32.0608840
  27.2067090  68.5396020  31.8390250  27.9992410  68.0445250  31.6316210
  27.5000240  69.2186160  32.4465860  23.3326750  59.4116960   2.7206300
  23.2520800  58.4971570   2.4498010  22.9191170  59.9084030   2.0146010
  21.4644790  61.1895980   4.6015570  20.6886890  60.7096420   4.8914140
  22.1157720  60.5101630   4.4271730  15.4810620  61.5015790   5.4791330
  14.6495500  61.2464500   5.8787840  16.0891600  61.5726560   6.2149250
  25.4852220  65.5956170   3.3814700  25.0233750  64.8243410   3.7101870
  26.2977770  65.6222240   3.8867150  15.4611880  65.5355880   5.6749350
  15.7639920  64.6453620   5.4959570  16.2055470  66.0926100   5.4471600
  11.8535580  59.0623330   5.1473420  12.4251690  58.2945530   5.1477060
  11.8537120  59.3612090   4.2380030  21.7115530  67.8814180   3.0018690
  21.0926970  68.3371680   2.4313130  22.5667310  68.0365640   2.6008390
  20.9053780  63.8653170   4.6085730  20.8362060  62.9243110   4.4474860
  21.6673640  63.9554580   5.1808300  13.0960450  54.4707690   6.9342350
  12.9163290  53.5733440   7.2145110  12.6940530  55.0179560   7.6089300
  21.9358950  56.6723550   4.8354660  22.3123770  55.7995430   4.7228330
  21.8378460  57.0082250   3.9445100  25.7183070  54.1673990   1.7683000
  26.5392690  53.6770560   1.8108480  25.7517150  54.7571650   2.5214840
  13.7147120  56.9668190   5.5424690  14.3957230  57.2306560   6.1612090
  13.3995170  56.1269060   5.8762700  17.9071690  58.0135550   4.6297280
  18.4149910  58.5116520   5.2702300  18.4384930  57.2370750   4.4536640
  30.0082620  56.1840740   8.3326630  29.3034790  56.5722450   7.8141740
  30.2740540  56.8791030   8.9347560  16.1907790  52.6534110   8.8960700
  16.1926230  53.1706500   8.0906600  15.3612100  52.1764290   8.8730630
  17.4410640  62.2929290   7.0734200  17.1080020  62.9198210   7.7155270
  17.6177320  62.8191170   6.2935870  25.9544550  56.1074370   4.5410540
  25.2500120  56.3959260   5.1213650  26.3156710  56.9174480   4.1810100
  15.8723120  54.3644070   6.9031150  16.2139930  55.2086120   6.6085020
  14.9338930  54.5127810   7.0196490  16.6529740  64.2610090   8.8883380
  17.2703740  64.9361170   8.6067830  15.7922860  64.6698070   8.7970880
  27.5707330  65.7249500   6.8038020  26.8870850  66.3948610   6.7954690
  28.1101620  65.9230150   6.0382880  29.0231470  55.5529160   4.9319750
  28.0756380  55.5868140   5.0635180  29.3481460  56.3668110   5.3169110
  19.5551010  51.8526340   3.2275740  19.8625990  51.2973230   2.5111240
  18.6251710  51.9870800   3.0448730  25.1066070  67.5693630   5.5183200
  25.1193230  67.1655920   4.6505460  24.5541290  68.3440920   5.4144630
  24.5051510  62.4723470   6.8465810  24.9220300  62.2583580   6.0119270
  25.2291330  62.7296260   7.4174430  28.4513610  60.8710690   6.9382050
  27.6232240  60.9403780   6.4632180  29.0464090  61.4565000   6.4697880
  25.4155620  57.6580010   7.8836920  25.0026800  58.4833720   8.1376910
  24.6831570  57.0725050   7.6913280  17.5488410  60.4439910   2.7455590
  17.1445410  59.7317160   2.2501490  17.6351530  60.0993150   3.6343630
  18.0170110  64.1307470   4.9094800  17.7198400  63.5252940   4.2302580
  18.9669930  64.1684780   4.7984160  16.2617030  57.2183120   6.5254630
  16.8131620  57.3278460   5.7507880  16.7760540  57.5920720   7.2409860
  26.1055720  67.7039340   8.5717900  25.6286280  68.5111530   8.3790510
  25.4217510  67.0517670   8.7244110  17.1088540  63.8689160  11.5602600
  16.2117070  64.0929130  11.8076000  17.1341410  63.9924100  10.6114000
  15.9359760  60.7402480  10.1359970  15.7967530  61.6125280  10.5047370
  15.0541120  60.3975290   9.9907910  17.7340110  66.6824180  12.3445120
  17.7055540  67.0867130  11.4773550  17.5705080  65.7534540  12.1816720
  29.6854930  67.4651280  13.6409290  30.1614650  67.9434170  14.3198370
  30.3062090  67.3968770  12.9154790  11.8878410  62.5100030   6.0530880
  11.9658830  62.6448800   5.1086600  12.5020090  61.8015920   6.2459000
  29.0888180  64.6564130  10.8009300  29.2151240  64.4176010   9.8826480
  29.1309560  63.8248670  11.2731380  22.9504920  68.3592130   9.3704110
  23.4649590  68.2700140  10.1726540  22.1074000  68.7051830   9.6632020
  28.9412190  56.7096590  11.7659040  28.3256460  57.2176260  11.2374500
  28.6208610  55.8094920  11.7084980  11.9437930  63.5514200   8.5925340
  12.1068970  63.0819560   7.7744710  12.4090380  63.0437760   9.2574180
  16.7156700  52.6819960   3.6285910  16.2724850  53.4629500   3.2970430
  17.2741690  53.0049850   4.3356850  21.0026510  55.5488480   9.2321230
  20.5405880  55.7571500  10.0441170  20.6004620  54.7347830   8.9291900
  26.0031020  56.7697430  10.3617890  25.1524610  56.4703180  10.6826960
  25.8432810  57.0139440   9.4501710  23.0980730  58.2699180  12.4616680
  23.4234140  57.4362930  12.1218910  23.8861060  58.7927700  12.6095010
  18.7532600  53.2267290   5.4875510  19.0504930  54.1330120   5.4067530
  19.3018160  52.7386070   4.8735080  18.9470130  58.7039110  12.0227430
  18.8513730  57.7633840  11.8727830  19.7902110  58.9254180  11.6275500
  14.0780670  55.1152780  10.1761210  13.6844060  55.9627990  10.3833990
  13.3899070  54.4779150  10.3669850  20.6525720  55.1987750  13.2457950
  19.9624040  55.0059950  13.8804040  21.3958020  55.4822390  13.7782250
  11.3797720  53.0381240   4.2091290  11.0910770  53.6084100   4.9216270
  12.1243480  52.5585690   4.5722520  22.9288690  59.0386190   6.0811870
  22.1969810  59.5473000   6.4301970  22.5313030  58.2216170   5.7800650
  19.3666080  55.7140390   4.4864360  19.3702140  55.2730340   3.6368900
  20.2617200  56.0357720   4.5936180  15.2168460  55.5966880   3.4458570
  14.8768510  56.0742110   4.2025620  14.4545780  55.1432000   3.0859670
  23.3914600  54.4919870   5.4934810  23.4087340  54.9428520   6.3376660
  23.1430180  53.5925510   5.7068250  26.8185350  51.9052050  11.3321190
  27.1431120  51.1741710  11.8579170  26.8541860  51.5865690  10.4302180
  13.5176910  62.9265630  10.7521150  13.1331700  62.2859300  11.3504110
  13.8289100  63.6301750  11.3215880  19.6674050  59.7742170   6.2329770
  20.0344180  59.3000740   6.9791110  19.4779110  60.6483740   6.5738110
  12.5314540  54.5185860   2.3623240  12.2461460  54.1541530   3.2001860
  12.4693400  53.7866320   1.7486380  17.4573420  58.8150810   8.5513980
  17.1530490  59.6942790   8.7764340  18.4119880  58.8750600   8.5871420
  26.7443190  62.0177160   4.9407220  27.4642310  62.5132450   4.5503330
  26.5425010  61.3395050   4.2961090  22.1261990  62.0886220  10.8276220
  22.0599300  61.1681890  10.5733810  21.4967130  62.1861660  11.5420860
  16.0292610  62.6892180   2.7859640  16.5471280  61.8860440   2.7316530
  15.5776630  62.6271320   3.6276470  13.5137150  59.6553550   9.6985340
  13.1552090  60.3207400  10.2858680  13.2191710  58.8237100  10.0697960
  16.7150270  60.1137790  12.5824890  16.4150410  60.2594970  11.6852710
  17.4861510  59.5543080  12.4898280  22.0578720  64.9106790  10.5780020
  22.0723260  63.9787750  10.3598930  21.3503820  64.9966550  11.2169790
  28.2689930  61.5514130   9.9248600  27.5438120  62.1442910   9.7277990
  28.7965390  61.5437670   9.1261970  23.7989520  63.2774300   3.4232450
  24.1513340  62.6802430   2.7633820  22.9151850  62.9518530   3.5940700
  21.4912620  66.5524360   7.6720520  22.1354840  66.7583740   8.3493940
  21.8542060  65.7912760   7.2191370  22.7644700  64.5556710   6.3897970
  23.4066930  63.8549870   6.5030140  23.2894050  65.3355150   6.2094860
  24.5382320  65.3551610   9.5934030  24.8738560  65.9418300  10.2711950
  23.6182660  65.2244320   9.8231820  12.0885720  53.1446790  10.3757440
  11.3744240  53.3443710  10.9810050  12.5080760  52.3686360  10.7472240
  12.3758310  67.1327050  11.3623970  12.4849430  66.1921790  11.2219360
  11.7238870  67.3981800  10.7137700  20.3670900  65.4042940  12.7622090
  20.0467770  64.6852180  13.3067780  19.6929260  66.0798010  12.8358150
  23.5824500  55.6369100   8.1258890  23.9505320  54.8164310   8.4538460
  22.7222700  55.6970990   8.5414540  20.5426490  58.2908690   8.3496860
  21.0411740  58.7654510   9.0148710  20.6849440  57.3672210   8.5566890
  27.7493350  54.5076650   9.1925250  27.2466950  55.2482050   9.5319060
  28.5650010  54.8960650   8.8762040  26.0415360  59.7509830   2.6386610
  25.1005500  59.7660060   2.8134300  26.3559430  58.9645790   3.0846910
  28.0440940  66.9218680   4.3140870  28.1688360  67.7449850   4.7864680
  28.9106500  66.7109410   3.9665020  15.5158470  69.0149890   3.9858000
  16.2520950  68.4665350   4.2566570  15.8999390  69.8805900   3.8463990
  14.5216750  68.1995960  13.1743580  15.3229480  68.5208010  13.5878980
  14.0068570  67.8391540  13.8963490  23.3581380  64.3075830  13.1218990
  22.7519540  64.3307430  12.3814740  23.0535490  63.5758870  13.6586240
  24.7881750  68.0356120  11.7328400  25.7403500  67.9514140  11.6828640
  24.6409970  68.6997830  12.4062190  12.2414560  60.6869420  12.1179630
  12.7453580  60.1076700  12.6895860  11.5021980  60.9709650  12.6556000
  19.2952500  62.0940410  11.6515150  18.5298170  62.6625410  11.5669820
  19.4768460  61.8016620  10.7583380  26.4375850  63.8245740  12.2090170
  27.1785320  64.1621500  11.7057630  25.6748530  63.9937800  11.6559940
  14.2737640  58.8299010  13.0129700  14.3142980  58.5312880  13.9214930
  15.1283140  59.2306620  12.8537220  16.2143450  57.4091110  10.9804190
  15.6839910  56.9182060  10.3527530  16.8831520  57.8375310  10.4462120
  25.1121510  61.8760570  10.7445380  25.5262530  62.0305650  11.5935800
  24.1772510  62.0015790  10.9071160  25.5843680  59.2156730  12.7484530
  26.1664450  58.4609050  12.6605010  25.7605450  59.7464170  11.9716010
  16.7015750  54.3753480  11.0601480  16.6072620  53.7574230  10.3352350
  16.1213140  55.1019770  10.8331390  19.4677190  52.9326720   8.0928870
  19.0194490  52.9550980   7.2474420  18.8342390  52.5345740   8.6899170
  19.8736740  61.8281050   8.7141310  20.2924850  62.6713780   8.5417550
  18.9545370  61.9653090   8.4848090  22.2100640  59.5597230  10.0979150
  22.3296850  58.9638370  10.8373990  23.0694640  59.5966920   9.6780450
  24.5488540  60.1134420   8.6741660  24.0223760  60.6377040   8.0706800
  24.8919880  60.7461810   9.3051390  17.7244160  68.1334060   9.8299040
  17.1865250  68.8580120   9.5107740  17.9778120  67.6564400   9.0396380
  18.9769410  56.1018580  11.3554970  19.5669100  55.7934430  12.0432790
  18.1589650  55.6298330  11.5114870  23.7962840  55.7184390  11.5887990
  23.1078360  55.0565930  11.5237980  24.5168860  55.2722660  12.0336450
  20.5806370  69.3685270  10.0885690  20.5065070  70.2720410  10.3958060
  19.6785210  69.0497170  10.0607760  11.9833660  66.6959860   3.3919310
  12.3136670  65.8280920   3.1597950  12.4124660  66.9018380   4.2224270
  12.4723870  67.5630450   6.1300940  12.0354860  67.7431250   6.9625090
  13.0401550  68.3205070   5.9882660  28.1086050  67.0647450  10.4178250
  27.5088040  67.1240010   9.6742170  28.2379950  66.1252430  10.5475100
  12.3048300  60.0750680   2.4889820  11.6497140  59.8062320   1.8449520
  13.1426250  59.9655160   2.0391800  29.8103930  62.4062850   3.1024090
  30.1812760  61.6230170   2.6960060  30.4505860  63.0951950   2.9241390
  26.7937690  63.7899430   8.5154410  25.9797530  64.2196590   8.7780200
  27.2011890  64.4017840   7.9023460  13.3424230  60.4603250   7.0293160
  13.7097270  60.3730650   7.9089180  12.7735050  59.6969800   6.9300020
  28.1428090  58.9287630  10.0423630  27.9114180  58.7000380   9.1421580
  28.4032640  59.8487180   9.9968520  12.8940230  57.3712340  10.9351580
  11.9996280  57.3379100  11.2745290  13.4337780  57.5699130  11.7002830
  26.5816160  54.1544060  12.8203330  27.4586340  54.1627460  13.2037330
  26.5937000  53.4174900  12.2095680  28.0279430  58.0073600   3.7091350
  28.5516910  57.5136250   3.0781520  28.6138850  58.1423960   4.4538920
  28.2069150  58.0913470   7.2310900  27.2571860  58.0577010   7.3455890
  28.3882160  59.0013580   6.9960670  13.3979940  51.6460670   5.2834800
  14.0456130  51.0958050   4.8429960  13.8181780  51.9003820   6.1050610
  28.9466560  55.9007900   2.1821440  28.8365840  55.7463940   3.1203710
  29.7074150  55.3728840   1.9396850  27.2932280  51.8402030   8.6404440
  27.9304500  52.4536170   9.0063630  27.4407170  51.8762690   7.6953670
  13.1511940  51.8016340   8.0260120  12.8026760  52.2580160   8.7918300
  12.8199640  50.9073470   8.1082550  14.7576310  64.9735940  12.1913310
  14.7145940  64.6028850  13.0727770  14.8887320  65.9113510  12.3315130
  18.4582340  66.5295530   7.7923030  18.2173700  66.7970090   6.9053550
  19.3984980  66.7001260   7.8473890  20.6636760  52.9928220  11.5479540
  20.6025650  53.5850050  12.2974950  21.6037140  52.8854180  11.4029800
  23.3011320  52.6498280  11.1871830  23.9151730  52.9677570  10.5252910
  23.8460880  52.1646870  11.8067690  29.7186500  68.5489910   8.5933670
  29.2244780  68.9458780   7.8760800  29.1099790  67.9239120   8.9870950
  13.8232580  51.3292540  11.3010890  14.3715570  51.1480590  10.5377000
  13.8887890  50.5386650  11.8367200  14.5964340  67.9198190   9.3111090
  14.0024660  67.7882890  10.0501130  14.5888180  67.0836330   8.8453190
  24.0419360  51.2130420   7.5141120  23.1679200  51.5465530   7.3114050
  23.9330110  50.7403600   8.3392990  24.9491340  53.4201290   8.8982840
  24.6204700  52.6053050   8.5184570  25.8973640  53.3771100   8.7748530
  27.4025950  69.1913330   5.8720410  26.9428920  69.9429140   5.4978430
  26.7738410  68.4719800   5.8135210  14.2276570  65.2856570   8.2619130
  13.5010630  64.6661860   8.1945080  14.2885720  65.6797180   7.3917210
  17.8321670  67.5001570   5.0468540  18.3486690  66.8888930   4.5216800
  18.4819050  68.0030350   5.5379550  20.5717170  68.3910060   5.8737520
  20.8594980  68.1364360   4.9970530  21.0840390  67.8387420   6.4643090
  21.7894180  52.1300260   6.4534030  21.0065970  52.6045760   6.7330790
  21.4957110  51.2255090   6.3447210  26.3415250  52.8323360   4.4983120
  26.7823340  52.7768460   3.6504720  26.0722840  53.7481370   4.5693300
  28.2053820  52.4638600   2.5091940  28.1442220  51.5199820   2.3622960
  28.9845850  52.5718690   3.0545400  24.1773380  51.2129460   3.2033130
  24.7802750  51.7849670   3.6781650  23.4366370  51.7768900   2.9807030
  20.6389530  69.3126160  13.2405720  21.5656840  69.0770430  13.2841680
  20.6239960  70.1398160  12.7591750  17.8253140  51.9770910  13.0047600
  17.5437410  52.4804510  12.2408420  18.2072840  51.1792660  12.6389730
  24.4268600  51.3924490  13.5828070  24.3134050  51.7119100  14.4779590
  25.2438340  51.7937000  13.2865350  27.2067090  68.5396020  13.0646760
  27.9992410  68.0445250  12.8572720  27.5000240  69.2186160  13.6722370
  23.3326750  40.6373470  77.8180260  23.2520800  39.7228080  77.5471970
  22.9191170  41.1340540  77.1119970  21.4644790  42.4152490  79.6989530
  20.6886890  41.9352930  79.9888100  22.1157720  41.7358140  79.5245690
  15.4810620  42.7272300  80.5765290  14.6495500  42.4721010  80.9761800
  16.0891600  42.7983070  81.3123210  25.4852220  46.8212680  78.4788660
  25.0233750  46.0499920  78.8075830  26.2977770  46.8478750  78.9841110
  15.4611880  46.7612390  80.7723310  15.7639920  45.8710130  80.5933530
  16.2055470  47.3182610  80.5445560  13.8902570  37.6874190  74.3607680
  13.0019270  38.0290160  74.2587560  14.1743760  37.4874510  73.4688510
  11.8535580  40.2879840  80.2447380  12.4251690  39.5202040  80.2451020
  11.8537120  40.5868600  79.3353990  21.7115530  49.1070690  78.0992650
  21.0926970  49.5628190  77.5287090  22.5667310  49.2622150  77.6982350
  20.9053780  45.0909680  79.7059690  20.8362060  44.1499620  79.5448820
  21.6673640  45.1811090  80.2782260  21.9358950  37.8980060  79.9328620
  22.3123770  37.0251940  79.8202290  21.8378460  38.2338760  79.0419060
  16.0663960  36.2705690  75.3946060  16.1730710  37.1709420  75.7014820
  15.1556320  36.2223660  75.1040710  25.7183070  35.3930500  76.8656960
  26.5392690  34.9027070  76.9082440  25.7517150  35.9828160  77.6188800
  13.7147120  38.1924700  80.6398650  14.3957230  38.4563070  81.2586050
  13.3995170  37.3525570  80.9736660  17.9071690  39.2392060  79.7271240
  18.4149910  39.7373030  80.3676260  18.4384930  38.4627260  79.5510600
  22.5778880  43.9909930  75.4924560  21.9596150  44.4559380  74.9287280
  23.0902130  44.6837410  75.9094070  25.9544550  37.3330880  79.6384500
  25.2500120  37.6215770  80.2187610  26.3156710  38.1430990  79.2784060
  11.9462080  44.6766460  72.8664190  11.5690060  45.1653560  72.1349090
  12.2035150  45.3491740  73.4970720  27.5707330  46.9506010  81.9011980
  26.8870850  47.6205120  81.8928650  28.1101620  47.1486660  81.1356840
  29.0231470  36.7785670  80.0293710  28.0756380  36.8124650  80.1609140
  29.3481460  37.5924620  80.4143070  19.5551010  33.0782850  78.3249700
  19.8625990  32.5229740  77.6085200  18.6251710  33.2127310  78.1422690
  25.1066070  48.7950140  80.6157160  25.1193230  48.3912430  79.7479420
  24.5541290  49.5697430  80.5118590  26.4011490  45.5166360  75.7047330
  26.2907820  44.5740690  75.8296750  26.3979740  45.8782000  76.5910090
  21.9431770  41.1431680  75.0609820  21.0161050  41.0769060  75.2898290
  22.0956590  42.0811810  74.9465060  21.9300850  37.4148680  72.0576980
  20.9904520  37.5762640  72.1429440  22.2484110  38.1334360  71.5112970
  28.4513610  42.0967200  82.0356010  27.6232240  42.1660290  81.5606140
  29.0464090  42.6821510  81.5671840  25.9729060  42.7051980  75.5645070
  25.3541480  42.3671530  74.9171370  25.9553510  42.0611740  76.2724260
  17.5488410  41.6696420  77.8429550  17.1445410  40.9573670  77.3475450
  17.6351530  41.3249660  78.7317590  18.0170110  45.3563980  80.0068760
  17.7198400  44.7509450  79.3276540  18.9669930  45.3941290  79.8958120
  24.1493760  41.9438790  72.5717820  24.5887040  41.1061220  72.4255640
  24.8622180  42.5768190  72.6581960  22.2589140  46.8834860  76.5399060
  22.6985050  47.6259190  76.1254450  22.1976030  47.1261430  77.4638020
  27.7310900  33.1981600  70.8858860  27.4183560  33.2908430  71.7857930
  28.4923370  33.7762630  70.8356290  14.2493040  40.5641400  75.3436200
  14.1290640  41.2903490  74.7317470  13.9393930  39.7944310  74.8664110
  11.8878410  43.7356540  81.1504840  11.9658830  43.8705310  80.2060560
  12.5020090  43.0272430  81.3432960  13.1326040  45.4356730  77.5611020
  12.7254120  45.5771320  76.7064620  14.0239050  45.1516890  77.3582230
  24.9259320  49.8703980  73.8962070  24.7660460  49.5806920  74.7943900
  24.7606030  49.0944110  73.3607300  17.4047700  49.6502510  75.6733690
  17.2290180  48.7338050  75.4601490  16.5503440  50.0089800  75.9131490
  24.6285450  47.3791540  72.4560070  23.9350610  47.3768830  71.7962350
  25.3708310  46.9550860  72.0254240  24.1935380  49.0054250  76.5308560
  24.6492330  48.2243630  76.8447180  24.5327900  49.7161070  77.0749740
  16.7156700  33.9076470  78.7259870  16.2724850  34.6886010  78.3944390
  17.2741690  34.2306360  79.4330810  19.8315520  33.5287170  73.6065700
  19.2069700  33.5247040  74.3319010  19.7445640  32.6618130  73.2101670
  18.7532600  34.4523800  80.5849470  19.0504930  35.3586630  80.5041490
  19.3018160  33.9642580  79.9709040  16.5070920  39.0310040  76.4541120
  16.2811840  38.8147210  77.3587740  15.7263450  39.4638500  76.1087090
  23.7368680  39.0373410  75.0531770  23.1377570  39.7609210  74.8695390
  24.2848290  38.9750190  74.2708220  22.3433550  37.6736950  77.0835050
  22.7363120  37.9909150  76.2703740  22.7050400  36.7948830  77.1979570
  11.3797720  34.2637750  79.3065250  11.0910770  34.8340610  80.0190230
  12.1243480  33.7842200  79.6696480  11.5667950  38.2057870  70.5167970
  11.4842620  39.1488630  70.6582960  11.2151010  38.0632780  69.6380320
  22.9288690  40.2642700  81.1785830  22.1969810  40.7729510  81.5275930
  22.5313030  39.4472680  80.8774610  19.3666080  36.9396900  79.5838320
  19.3702140  36.4986850  78.7342860  20.2617200  37.2614230  79.6910140
  15.2168460  36.8223390  78.5432530  14.8768510  37.2998620  79.2999580
  14.4545780  36.3688510  78.1833630  19.4286230  37.9408980  72.5745080
  19.5499050  37.8995460  73.5230900  19.0434740  38.8033130  72.4191810
  23.3914600  35.7176380  80.5908770  23.4087340  36.1685030  81.4350620
  23.1430180  34.8182020  80.8042210  18.4407730  40.2510120  71.9728380
  17.8724630  39.8028370  71.3464290  19.1496730  40.6102900  71.4393530
  12.5314540  35.7442370  77.4597200  12.2461460  35.3798040  78.2975820
  12.4693400  35.0122830  76.8460340  15.9855210  44.2468310  74.2454790
  15.2117470  43.7065930  74.0853510  16.7149840  43.7274920  73.9072550
  26.7443190  43.2433670  80.0381180  27.4642310  43.7388960  79.6477290
  26.5425010  42.5651560  79.3935050  22.2053130  34.6371630  74.1810570
  21.3917740  34.1384800  74.1055880  22.0115080  35.4769880  73.7646920
  24.9201520  39.0091280  72.4772730  25.8081140  39.3208510  72.3024070
  24.8906610  38.1363530  72.0853310  16.0292610  43.9148690  77.8833600
  16.5471280  43.1116950  77.8290490  15.5776630  43.8527830  78.7250430
  20.9162110  45.1814970  73.1560900  21.2577810  45.9257200  72.6604220
  20.0874820  45.4946090  73.5185730  27.1915790  40.3203120  71.9452590
  27.1079510  40.7517340  71.0949030  27.9109980  40.7801470  72.3779410
  28.2203040  47.1745380  74.6734720  27.5779200  46.5201000  74.9478440
  27.8333700  47.5800470  73.8975390  23.7989520  44.5030810  78.5206410
  24.1513340  43.9058940  77.8607780  22.9151850  44.1775040  78.6914660
  19.8852800  45.2628500  75.9276820  20.5723930  45.8097710  76.3084410
  19.0985220  45.8069230  75.9626430  12.0245200  40.8801320  71.4193900
  12.8940050  41.1626120  71.7029820  11.5335520  41.6937190  71.3042710
  19.1880010  42.2674530  75.5402180  19.6442790  43.0779780  75.7662370
  18.8368220  41.9497670  76.3720670  15.0891790  32.6112180  76.0124700
  14.9606420  32.6030080  76.9609620  14.2653810  32.9495270  75.6615710
  22.7644700  45.7813220  81.4871930  23.4066930  45.0806380  81.6004100
  23.2894050  46.5611660  81.3068820  26.6100420  46.0661840  71.2111070
  26.3838000  45.3492280  71.8035710  26.2196620  45.8174280  70.3732820
  12.3916450  50.0928700  71.9855530  12.7514090  50.6918040  71.3312800
  12.2508790  50.6388590  72.7590560  26.1916670  43.9833780  72.8725230
  25.9038370  44.4446470  73.6603110  26.9868840  43.5231550  73.1409450
  18.4085070  47.4759900  72.8029200  18.3995170  48.2089590  72.1873710
  17.4883430  47.2291480  72.8956160  14.0091710  42.6974790  73.5475960
  13.4019660  43.4373690  73.5571260  14.4841060  42.7874150  72.7214160
  26.9486530  35.8182550  74.0320410  26.3199690  35.9228220  73.3178640
  26.4538450  36.0379330  74.8214290  21.3944670  47.5388140  71.4654390
  21.4956650  47.3352130  70.5356370  20.4946410  47.2846420  71.6702170
  18.9170560  38.0968500  75.4478290  18.2086710  38.5654840  75.8891900
  19.2015040  37.4390510  76.0823480  22.9485990  34.8219160  76.8874080
  22.8253770  34.8405290  75.9383590  23.8970550  34.8698100  77.0072480
  20.0362780  50.0574460  76.1602060  20.2904280  50.0195850  75.2381430
  19.0875260  49.9307790  76.1530310  17.1205580  36.4053580  72.8229000
  17.9696110  36.8423730  72.7569190  16.7536850  36.7173840  73.6501060
  26.0415360  40.9766340  77.7360570  25.1005500  40.9916570  77.9108260
  26.3559430  40.1902300  78.1820870  16.0197000  42.6585940  71.2964530
  16.7860270  42.5467300  71.8589960  16.0971690  41.9623910  70.6441300
  14.7143760  40.0911010  71.9797420  14.7947350  39.1438520  72.0914820
  15.6063510  40.4217890  72.0858080  28.0440940  48.1475190  79.4114830
  28.1688360  48.9706360  79.8838640  28.9106500  47.9365920  79.0638980
  15.5158470  50.2406400  79.0831960  16.2520950  49.6921860  79.3540530
  15.8999390  51.1062410  78.9437950  12.4003950  46.3079970  74.9573470
  11.4743730  46.5501110  74.9478880  12.8660380  47.1354230  74.8358220
  18.6260780  49.4136710  70.9057530  19.4189390  49.7025540  70.4539320
  18.1065130  48.9828880  70.2270010  27.6790950  48.6406840  72.3294270
  27.3932460  48.2271980  71.5148450  27.4810500  49.5694550  72.2094790
  19.1438180  44.6340120  70.7699880  19.0388820  44.0192470  71.4961260
  18.9762400  44.1106010  69.9862890  22.3840910  43.6960150  71.3741870
  21.8351010  44.1429450  72.0184610  23.0060170  43.1909400  71.8979540
  18.0516030  42.6551070  73.2707170  18.4732450  42.4890940  74.1138560
  18.1766870  41.8451300  72.7762310  20.5643670  41.6788680  70.5184270
  21.0849330  40.9637700  70.1525420  21.2112070  42.3174550  70.8184780
  16.9474930  38.7284300  70.2165330  16.7463990  37.8651660  70.5778670
  16.7766980  38.6417660  69.2786930  24.4263240  33.5392530  72.7452210
  24.7065530  32.6960430  73.1011630  23.6528970  33.7715640  73.2590960
  15.7457730  35.8284920  70.2043210  16.0483630  35.8352350  69.2962360
  16.4852320  35.4782780  70.7010870  18.9642660  34.7719540  71.1899410
  18.6164660  34.0943530  70.6101860  19.1655430  34.3109050  72.0042800
  21.1291700  49.7600290  72.8086010  22.0242490  50.0985260  72.8304770
  21.1609330  49.0379700  72.1810290  14.7687860  45.1327340  71.0373010
  15.2062730  45.6757010  71.6930590  15.2535590  44.3074290  71.0469350
  11.9833660  47.9216370  78.4893270  12.3136670  47.0537430  78.2571910
  12.4124660  48.1274890  79.3198230  16.5795580  46.2525380  76.1495240
  16.2791120  46.1290350  77.0499150  16.4733070  45.3933970  75.7410970
  29.3487500  46.0321780  70.8521920  28.5180460  46.0998430  71.3229150
  29.5259330  46.9225900  70.5488780  28.8043960  42.7769260  73.3556120
  29.5662870  43.3465910  73.4615810  28.8198330  42.2096460  74.1264430
  12.3048300  41.3007190  77.5863780  11.6497140  41.0318830  76.9423480
  13.1426250  41.1911670  77.1365760  29.8103930  43.6319360  78.1998050
  30.1812760  42.8486680  77.7934020  30.4505860  44.3208460  78.0215350
  28.8563130  43.0703630  70.5128640  29.1311970  43.9782510  70.3847860
  28.6673870  43.0066160  71.4490630  25.2538740  36.0948480  71.8082270
  25.6723620  35.9079460  70.9678930  24.9474800  35.2427530  72.1185200
  28.7528470  41.0072620  75.5058070  28.3772070  40.2400550  75.0739360
  28.0231590  41.3895320  75.9933000  11.5186380  38.5106120  73.5289110
  10.6150460  38.7736320  73.3540770  12.0027000  38.7817290  72.7489070
  28.0279430  39.2330110  78.8065310  28.5516910  38.7392760  78.1755480
  28.6138850  39.3680470  79.5512880  14.0613590  37.5671660  71.4383490
  14.7705290  37.1454880  70.9530770  13.3453530  37.6346890  70.8066840
  13.7087750  33.6210990  70.4786140  14.4315880  34.1619930  70.7967360
  13.9812270  33.3474410  69.6027680  27.5179400  38.4903460  74.7457720
  28.0138520  38.2574330  75.5306600  27.3195470  37.6515300  74.3295360
  13.3979940  32.8717180  80.3808760  14.0456130  32.3214560  79.9403920
  13.8181780  33.1260330  81.2024570  28.9466560  37.1264410  77.2795400
  28.8365840  36.9720450  78.2177670  29.7074150  36.5985350  77.0370810
  29.8356830  34.9572330  70.5201540  30.7606140  34.8253510  70.3119830
  29.8132620  35.0365150  71.4737990  29.9095320  35.7282990  73.1458250
  29.1146820  35.6628110  73.6751160  30.1138600  36.6633630  73.1343600
  26.8513740  49.7674540  77.1396640  27.4472810  49.4459110  76.4631060
  27.1091890  49.2946360  77.9309910  27.4025950  50.4169840  80.9694370
  26.9428920  51.1685650  80.5952390  26.7738410  49.6976310  80.9109170
  17.8321670  48.7258080  80.1442500  18.3486690  48.1145440  79.6190760
  18.4819050  49.2286860  80.6353510  20.5717170  49.6166570  80.9711480
  20.8594980  49.3620870  80.0944490  21.0840390  49.0643930  81.5617050
  21.7894180  33.3556770  81.5507990  21.0065970  33.8302270  81.8304750
  21.4957110  32.4511600  81.4421170  26.3415250  34.0579870  79.5957080
  26.7823340  34.0024970  78.7478680  26.0722840  34.9737880  79.6667260
  28.2053820  33.6895110  77.6065900  28.1442220  32.7456330  77.4596920
  28.9845850  33.7975200  78.1519360  12.5106570  49.8287470  76.5689850
  12.3428610  49.1958150  77.2671740  11.6441080  50.0346870  76.2184040
  13.1334590  33.6604250  74.0721710  13.8913950  33.7733130  73.4985740
  12.6711760  34.4973450  74.0265140  19.6748400  35.7743520  77.0624020
  18.8622910  35.4000410  76.7219900  20.1790040  35.0188600  77.3645210
  24.1773380  32.4385970  78.3007090  24.7802750  33.0106180  78.7755610
  23.4366370  33.0025410  78.0780990  27.3207980  32.8407530  73.5747370
  27.5158610  33.7390980  73.8414800  26.5337850  32.6094610  74.0680320
  14.1169270  48.5220700  74.0139990  13.5916890  48.9028730  73.3101950
  14.0413850  49.1471470  74.7349700  15.5059740  34.1868300  72.6123680
  16.0352500  33.3998100  72.4831630  16.1388060  34.8659490  72.8459210
  17.6997580  33.9243440  75.6669070  17.0700320  33.2230750  75.8339200
  17.1602720  34.6847570  75.4502230  28.8734590  50.0808240  75.3353930
  29.0486780  49.3945980  74.6914850  28.1756160  50.6055290  74.9430600
  16.7162240  50.4703080  72.8889240  17.4481060  50.1862360  72.3413130
  16.9755910  50.2316360  73.7788620  15.8777030  46.5867810  72.8935570
  15.2485910  47.0552910  73.4421400  15.9924860  45.7417030  73.3281760
  23.3326750  40.6373470  59.0436770  23.2520800  39.7228080  58.7728480
  22.9191170  41.1340540  58.3376480  21.4644790  42.4152490  60.9246040
  20.6886890  41.9352930  61.2144610  22.1157720  41.7358140  60.7502200
  15.4810620  42.7272300  61.8021800  14.6495500  42.4721010  62.2018310
  16.0891600  42.7983070  62.5379720  25.4852220  46.8212680  59.7045170
  25.0233750  46.0499920  60.0332340  26.2977770  46.8478750  60.2097620
  15.4611880  46.7612390  61.9979820  15.7639920  45.8710130  61.8190040
  16.2055470  47.3182610  61.7702070  13.8902570  37.6874190  55.5864190
  13.0019270  38.0290160  55.4844070  14.1743760  37.4874510  54.6945020
  11.8535580  40.2879840  61.4703890  12.4251690  39.5202040  61.4707530
  11.8537120  40.5868600  60.5610500  21.7115530  49.1070690  59.3249160
  21.0926970  49.5628190  58.7543600  22.5667310  49.2622150  58.9238860
  20.9053780  45.0909680  60.9316200  20.8362060  44.1499620  60.7705330
  21.6673640  45.1811090  61.5038770  13.0960450  35.6964200  63.2572820
  12.9163290  34.7989950  63.5375580  12.6940530  36.2436070  63.9319770
  21.9358950  37.8980060  61.1585130  22.3123770  37.0251940  61.0458800
  21.8378460  38.2338760  60.2675570  16.0663960  36.2705690  56.6202570
  16.1730710  37.1709420  56.9271330  15.1556320  36.2223660  56.3297220
  25.7183070  35.3930500  58.0913470  26.5392690  34.9027070  58.1338950
  25.7517150  35.9828160  58.8445310  13.7147120  38.1924700  61.8655160
  14.3957230  38.4563070  62.4842560  13.3995170  37.3525570  62.1993170
  17.9071690  39.2392060  60.9527750  18.4149910  39.7373030  61.5932770
  18.4384930  38.4627260  60.7767110  30.0082620  37.4097250  64.6557100
  29.3034790  37.7978960  64.1372210  30.2740540  38.1047540  65.2578030
  16.1907790  33.8790620  65.2191170  16.1926230  34.3963010  64.4137070
  15.3612100  33.4020800  65.1961100  22.5778880  43.9909930  56.7181070
  21.9596150  44.4559380  56.1543790  23.0902130  44.6837410  57.1350580
  17.4410640  43.5185800  63.3964670  17.1080020  44.1454720  64.0385740
  17.6177320  44.0447680  62.6166340  25.9544550  37.3330880  60.8641010
  25.2500120  37.6215770  61.4444120  26.3156710  38.1430990  60.5040570
  15.8723120  35.5900580  63.2261620  16.2139930  36.4342630  62.9315490
  14.9338930  35.7384320  63.3426960  16.6529740  45.4866600  65.2113850
  17.2703740  46.1617680  64.9298300  15.7922860  45.8954580  65.1201350
  11.9462080  44.6766460  54.0920700  11.5690060  45.1653560  53.3605600
  12.2035150  45.3491740  54.7227230  27.5707330  46.9506010  63.1268490
  26.8870850  47.6205120  63.1185160  28.1101620  47.1486660  62.3613350
  29.0231470  36.7785670  61.2550220  28.0756380  36.8124650  61.3865650
  29.3481460  37.5924620  61.6399580  19.5551010  33.0782850  59.5506210
  19.8625990  32.5229740  58.8341710  18.6251710  33.2127310  59.3679200
  25.1066070  48.7950140  61.8413670  25.1193230  48.3912430  60.9735930
  24.5541290  49.5697430  61.7375100  26.4011490  45.5166360  56.9303840
  26.2907820  44.5740690  57.0553260  26.3979740  45.8782000  57.8166600
  24.5051510  43.6979980  63.1696280  24.9220300  43.4840090  62.3349740
  25.2291330  43.9552770  63.7404900  28.4513610  42.0967200  63.2612520
  27.6232240  42.1660290  62.7862650  29.0464090  42.6821510  62.7928350
  25.9729060  42.7051980  56.7901580  25.3541480  42.3671530  56.1427880
  25.9553510  42.0611740  57.4980770  25.4155620  38.8836520  64.2067390
  25.0026800  39.7090230  64.4607380  24.6831570  38.2981560  64.0143750
  17.5488410  41.6696420  59.0686060  17.1445410  40.9573670  58.5731960
  17.6351530  41.3249660  59.9574100  18.0170110  45.3563980  61.2325270
  17.7198400  44.7509450  60.5533050  18.9669930  45.3941290  61.1214630
  16.2617030  38.4439630  62.8485100  16.8131620  38.5534970  62.0738350
  16.7760540  38.8177230  63.5640330  26.1055720  48.9295850  64.8948370
  25.6286280  49.7368040  64.7020980  25.4217510  48.2774180  65.0474580
  17.1088540  45.0945670  67.8833070  16.2117070  45.3185640  68.1306470
  17.1341410  45.2180610  66.9344470  15.9359760  41.9658990  66.4590440
  15.7967530  42.8381790  66.8277840  15.0541120  41.6231800  66.3138380
  22.2589140  46.8834860  57.7655570  22.6985050  47.6259190  57.3510960
  22.1976030  47.1261430  58.6894530  17.7340110  47.9080690  68.6675590
  17.7055540  48.3123640  67.8004020  17.5705080  46.9791050  68.5047190
  14.2493040  40.5641400  56.5692710  14.1290640  41.2903490  55.9573980
  13.9393930  39.7944310  56.0920620  29.6854930  48.6907790  69.9639760
  30.1614650  49.1690680  70.6428840  30.3062090  48.6225280  69.2385260
  11.8878410  43.7356540  62.3761350  11.9658830  43.8705310  61.4317070
  12.5020090  43.0272430  62.5689470  13.1326040  45.4356730  58.7867530
  12.7254120  45.5771320  57.9321130  14.0239050  45.1516890  58.5838740
  29.0888180  45.8820640  67.1239770  29.2151240  45.6432520  66.2056950
  29.1309560  45.0505180  67.5961850  22.9504920  49.5848640  65.6934580
  23.4649590  49.4956650  66.4957010  22.1074000  49.9308340  65.9862490
  24.9259320  49.8703980  55.1218580  24.7660460  49.5806920  56.0200410
  24.7606030  49.0944110  54.5863810  17.4047700  49.6502510  56.8990200
  17.2290180  48.7338050  56.6858000  16.5503440  50.0089800  57.1388000
  24.1935380  49.0054250  57.7565070  24.6492330  48.2243630  58.0703690
  24.5327900  49.7161070  58.3006250  28.9412190  37.9353100  68.0889510
  28.3256460  38.4432770  67.5604970  28.6208610  37.0351430  68.0315450
  11.9437930  44.7770710  64.9155810  12.1068970  44.3076070  64.0975180
  12.4090380  44.2694270  65.5804650  16.7156700  33.9076470  59.9516380
  16.2724850  34.6886010  59.6200900  17.2741690  34.2306360  60.6587320
  21.0026510  36.7744990  65.5551700  20.5405880  36.9828010  66.3671640
  20.6004620  35.9604340  65.2522370  26.0031020  37.9953940  66.6848360
  25.1524610  37.6959690  67.0057430  25.8432810  38.2395950  65.7732180
  23.0980730  39.4955690  68.7847150  23.4234140  38.6619440  68.4449380
  23.8861060  40.0184210  68.9325480  19.8315520  33.5287170  54.8322210
  19.2069700  33.5247040  55.5575520  19.7445640  32.6618130  54.4358180
  18.7532600  34.4523800  61.8105980  19.0504930  35.3586630  61.7298000
  19.3018160  33.9642580  61.1965550  16.5070920  39.0310040  57.6797630
  16.2811840  38.8147210  58.5844250  15.7263450  39.4638500  57.3343600
  18.9470130  39.9295620  68.3457900  18.8513730  38.9890350  68.1958300
  19.7902110  40.1510690  67.9505970  22.3433550  37.6736950  58.3091560
  22.7363120  37.9909150  57.4960250  22.7050400  36.7948830  58.4236080
  14.0780670  36.3409290  66.4991680  13.6844060  37.1884500  66.7064460
  13.3899070  35.7035660  66.6900320  20.6525720  36.4244260  69.5688420
  19.9624040  36.2316460  70.2034510  21.3958020  36.7078900  70.1012720
  11.3797720  34.2637750  60.5321760  11.0910770  34.8340610  61.2446740
  12.1243480  33.7842200  60.8952990  11.5667950  38.2057870  51.7424480
  11.4842620  39.1488630  51.8839470  11.2151010  38.0632780  50.8636830
  22.9288690  40.2642700  62.4042340  22.1969810  40.7729510  62.7532440
  22.5313030  39.4472680  62.1031120  19.3666080  36.9396900  60.8094830
  19.3702140  36.4986850  59.9599370  20.2617200  37.2614230  60.9166650
  15.2168460  36.8223390  59.7689040  14.8768510  37.2998620  60.5256090
  14.4545780  36.3688510  59.4090140  23.3914600  35.7176380  61.8165280
  23.4087340  36.1685030  62.6607130  23.1430180  34.8182020  62.0298720
  26.8185350  33.1308560  67.6551660  27.1431120  32.3998220  68.1809640
  26.8541860  32.8122200  66.7532650  13.5176910  44.1522140  67.0751620
  13.1331700  43.5115810  67.6734580  13.8289100  44.8558260  67.6446350
  19.6674050  40.9998680  62.5560240  20.0344180  40.5257250  63.3021580
  19.4779110  41.8740250  62.8968580  12.5314540  35.7442370  58.6853710
  12.2461460  35.3798040  59.5232330  12.4693400  35.0122830  58.0716850
  17.4573420  40.0407320  64.8744450  17.1530490  40.9199300  65.0994810
  18.4119880  40.1007110  64.9101890  15.9855210  44.2468310  55.4711300
  15.2117470  43.7065930  55.3110020  16.7149840  43.7274920  55.1329060
  26.7443190  43.2433670  61.2637690  27.4642310  43.7388960  60.8733800
  26.5425010  42.5651560  60.6191560  22.1261990  43.3142730  67.1506690
  22.0599300  42.3938400  66.8964280  21.4967130  43.4118170  67.8651330
  16.0292610  43.9148690  59.1090110  16.5471280  43.1116950  59.0547000
  15.5776630  43.8527830  59.9506940  20.9162110  45.1814970  54.3817410
  21.2577810  45.9257200  53.8860730  20.0874820  45.4946090  54.7442240
  13.5137150  40.8810060  66.0215810  13.1552090  41.5463910  66.6089150
  13.2191710  40.0493610  66.3928430  16.7150270  41.3394300  68.9055360
  16.4150410  41.4851480  68.0083180  17.4861510  40.7799590  68.8128750
  22.0578720  46.1363300  66.9010490  22.0723260  45.2044260  66.6829400
  21.3503820  46.2223060  67.5400260  28.2689930  42.7770640  66.2479070
  27.5438120  43.3699420  66.0508460  28.7965390  42.7694180  65.4492440
  23.7989520  44.5030810  59.7462920  24.1513340  43.9058940  59.0864290
  22.9151850  44.1775040  59.9171170  19.8852800  45.2628500  57.1533330
  20.5723930  45.8097710  57.5340920  19.0985220  45.8069230  57.1882940
  12.0245200  40.8801320  52.6450410  12.8940050  41.1626120  52.9286330
  11.5335520  41.6937190  52.5299220  19.1880010  42.2674530  56.7658690
  19.6442790  43.0779780  56.9918880  18.8368220  41.9497670  57.5977180
  21.4912620  47.7780870  63.9950990  22.1354840  47.9840250  64.6724410
  21.8542060  47.0169270  63.5421840  15.0891790  32.6112180  57.2381210
  14.9606420  32.6030080  58.1866130  14.2653810  32.9495270  56.8872220
  22.7644700  45.7813220  62.7128440  23.4066930  45.0806380  62.8260610
  23.2894050  46.5611660  62.5325330  24.5382320  46.5808120  65.9164500
  24.8738560  47.1674810  66.5942420  23.6182660  46.4500830  66.1462290
  12.3916450  50.0928700  53.2112040  12.7514090  50.6918040  52.5569310
  12.2508790  50.6388590  53.9847070  12.0885720  34.3703300  66.6987910
  11.3744240  34.5700220  67.3040520  12.5080760  33.5942870  67.0702710
  12.3758310  48.3583560  67.6854440  12.4849430  47.4178300  67.5449830
  11.7238870  48.6238310  67.0368170  20.3670900  46.6299450  69.0852560
  20.0467770  45.9108690  69.6298250  19.6929260  47.3054520  69.1588620
  18.4085070  47.4759900  54.0285710  18.3995170  48.2089590  53.4130220
  17.4883430  47.2291480  54.1212670  14.0091710  42.6974790  54.7732470
  13.4019660  43.4373690  54.7827770  14.4841060  42.7874150  53.9470670
  23.5824500  36.8625610  64.4489360  23.9505320  36.0420820  64.7768930
  22.7222700  36.9227500  64.8645010  26.9486530  35.8182550  55.2576920
  26.3199690  35.9228220  54.5435150  26.4538450  36.0379330  56.0470800
  21.3944670  47.5388140  52.6910900  21.4956650  47.3352130  51.7612880
  20.4946410  47.2846420  52.8958680  18.9170560  38.0968500  56.6734800
  18.2086710  38.5654840  57.1148410  19.2015040  37.4390510  57.3079990
  20.5426490  39.5165200  64.6727330  21.0411740  39.9911020  65.3379180
  20.6849440  38.5928720  64.8797360  22.9485990  34.8219160  58.1130590
  22.8253770  34.8405290  57.1640100  23.8970550  34.8698100  58.2328990
  20.0362780  50.0574460  57.3858570  20.2904280  50.0195850  56.4637940
  19.0875260  49.9307790  57.3786820  17.1205580  36.4053580  54.0485510
  17.9696110  36.8423730  53.9825700  16.7536850  36.7173840  54.8757570
  27.7493350  35.7333160  65.5155720  27.2466950  36.4738560  65.8549530
  28.5650010  36.1217160  65.1992510  26.0415360  40.9766340  58.9617080
  25.1005500  40.9916570  59.1364770  26.3559430  40.1902300  59.4077380
  16.0197000  42.6585940  52.5221040  16.7860270  42.5467300  53.0846470
  16.0971690  41.9623910  51.8697810  14.7143760  40.0911010  53.2053930
  14.7947350  39.1438520  53.3171330  15.6063510  40.4217890  53.3114590
  28.0440940  48.1475190  60.6371340  28.1688360  48.9706360  61.1095150
  28.9106500  47.9365920  60.2895490  15.5158470  50.2406400  60.3088470
  16.2520950  49.6921860  60.5797040  15.8999390  51.1062410  60.1694460
  12.4003950  46.3079970  56.1829980  11.4743730  46.5501110  56.1735390
  12.8660380  47.1354230  56.0614730  14.5216750  49.4252470  69.4974050
  15.3229480  49.7464520  69.9109450  14.0068570  49.0648050  70.2193960
  18.6260780  49.4136710  52.1314040  19.4189390  49.7025540  51.6795830
  18.1065130  48.9828880  51.4526520  23.3581380  45.5332340  69.4449460
  22.7519540  45.5563940  68.7045210  23.0535490  44.8015380  69.9816710
  24.7881750  49.2612630  68.0558870  25.7403500  49.1770650  68.0059110
  24.6409970  49.9254340  68.7292660  12.2414560  41.9125930  68.4410100
  12.7453580  41.3333210  69.0126330  11.5021980  42.1966160  68.9786470
  19.1438180  44.6340120  51.9956390  19.0388820  44.0192470  52.7217770
  18.9762400  44.1106010  51.2119400  19.2952500  43.3196920  67.9745620
  18.5298170  43.8881920  67.8900290  19.4768460  43.0273130  67.0813850
  26.4375850  45.0502250  68.5320640  27.1785320  45.3878010  68.0288100
  25.6748530  45.2194310  67.9790410  14.2737640  40.0555520  69.3360170
  14.3142980  39.7569390  70.2445400  15.1283140  40.4563130  69.1767690
  18.0516030  42.6551070  54.4963680  18.4732450  42.4890940  55.3395070
  18.1766870  41.8451300  54.0018820  16.2143450  38.6347620  67.3034660
  15.6839910  38.1438570  66.6758000  16.8831520  39.0631820  66.7692590
  25.1121510  43.1017080  67.0675850  25.5262530  43.2562160  67.9166270
  24.1772510  43.2272300  67.2301630  25.5843680  40.4413240  69.0715000
  26.1664450  39.6865560  68.9835480  25.7605450  40.9720680  68.2946480
  16.7015750  35.6009990  67.3831950  16.6072620  34.9830740  66.6582820
  16.1213140  36.3276280  67.1561860  19.4677190  34.1583230  64.4159340
  19.0194490  34.1807490  63.5704890  18.8342390  33.7602250  65.0129640
  19.8736740  43.0537560  65.0371780  20.2924850  43.8970290  64.8648020
  18.9545370  43.1909600  64.8078560  22.2100640  40.7853740  66.4209620
  22.3296850  40.1894880  67.1604460  23.0694640  40.8223430  66.0010920
  24.5488540  41.3390930  64.9972130  24.0223760  41.8633550  64.3937270
  24.8919880  41.9718320  65.6281860  16.9474930  38.7284300  51.4421840
  16.7463990  37.8651660  51.8035180  16.7766980  38.6417660  50.5043440
  17.7244160  49.3590570  66.1529510  17.1865250  50.0836630  65.8338210
  17.9778120  48.8820910  65.3626850  18.9769410  37.3275090  67.6785440
  19.5669100  37.0190940  68.3663260  18.1589650  36.8554840  67.8345340
  23.7962840  36.9440900  67.9118460  23.1078360  36.2822440  67.8468450
  24.5168860  36.4979170  68.3566920  24.4263240  33.5392530  53.9708720
  24.7065530  32.6960430  54.3268140  23.6528970  33.7715640  54.4847470
  15.7457730  35.8284920  51.4299720  16.0483630  35.8352350  50.5218870
  16.4852320  35.4782780  51.9267380  20.5806370  50.5941780  66.4116160
  20.5065070  51.4976920  66.7188530  19.6785210  50.2753680  66.3838230
  21.1291700  49.7600290  54.0342520  22.0242490  50.0985260  54.0561280
  21.1609330  49.0379700  53.4066800  14.7687860  45.1327340  52.2629520
  15.2062730  45.6757010  52.9187100  15.2535590  44.3074290  52.2725860
  11.9833660  47.9216370  59.7149780  12.3136670  47.0537430  59.4828420
  12.4124660  48.1274890  60.5454740  16.5795580  46.2525380  57.3751750
  16.2791120  46.1290350  58.2755660  16.4733070  45.3933970  56.9667480
  12.4723870  48.7886960  62.4531410  12.0354860  48.9687760  63.2855560
  13.0401550  49.5461580  62.3113130  28.1086050  48.2903960  66.7408720
  27.5088040  48.3496520  65.9972640  28.2379950  47.3508940  66.8705570
  12.3048300  41.3007190  58.8120290  11.6497140  41.0318830  58.1679990
  13.1426250  41.1911670  58.3622270  26.7937690  45.0155940  64.8384880
  25.9797530  45.4453100  65.1010670  27.2011890  45.6274350  64.2253930
  13.3424230  41.6859760  63.3523630  13.7097270  41.5987160  64.2319650
  12.7735050  40.9226310  63.2530490  28.1428090  40.1544140  66.3654100
  27.9114180  39.9256890  65.4652050  28.4032640  41.0743690  66.3198990
  12.8940230  38.5968850  67.2582050  11.9996280  38.5635610  67.5975760
  13.4337780  38.7955640  68.0233300  26.5816160  35.3800570  69.1433800
  27.4586340  35.3883970  69.5267800  26.5937000  34.6431410  68.5326150
  11.5186380  38.5106120  54.7545620  10.6150460  38.7736320  54.5797280
  12.0027000  38.7817290  53.9745580  28.0279430  39.2330110  60.0321820
  28.5516910  38.7392760  59.4011990  28.6138850  39.3680470  60.7769390
  28.2069150  39.3169980  63.5541370  27.2571860  39.2833520  63.6686360
  28.3882160  40.2270090  63.3191140  14.0613590  37.5671660  52.6640000
  14.7705290  37.1454880  52.1787280  13.3453530  37.6346890  52.0323350
  13.7087750  33.6210990  51.7042650  14.4315880  34.1619930  52.0223870
  13.9812270  33.3474410  50.8284190  13.3979940  32.8717180  61.6065270
  14.0456130  32.3214560  61.1660430  13.8181780  33.1260330  62.4281080
  27.2932280  33.0658540  64.9634910  27.9304500  33.6792680  65.3294100
  27.4407170  33.1019200  64.0184140  26.8513740  49.7674540  58.3653150
  27.4472810  49.4459110  57.6887570  27.1091890  49.2946360  59.1566420
  13.1511940  33.0272850  64.3490590  12.8026760  33.4836670  65.1148770
  12.8199640  32.1329980  64.4313020  14.7576310  46.1992450  68.5143780
  14.7145940  45.8285360  69.3958240  14.8887320  47.1370020  68.6545600
  18.4582340  47.7552040  64.1153500  18.2173700  48.0226600  63.2284020
  19.3984980  47.9257770  64.1704360  20.6636760  34.2184730  67.8710010
  20.6025650  34.8106560  68.6205420  21.6037140  34.1110690  67.7260270
  23.3011320  33.8754790  67.5102300  23.9151730  34.1934080  66.8483380
  23.8460880  33.3903380  68.1298160  29.7186500  49.7746420  64.9164140
  29.2244780  50.1715290  64.1991270  29.1099790  49.1495630  65.3101420
  13.8232580  32.5549050  67.6241360  14.3715570  32.3737100  66.8607470
  13.8887890  31.7643160  68.1597670  14.5964340  49.1454700  65.6341560
  14.0024660  49.0139400  66.3731600  14.5888180  48.3092840  65.1683660
  24.0419360  32.4386930  63.8371590  23.1679200  32.7722040  63.6344520
  23.9330110  31.9660110  64.6623460  24.9491340  34.6457800  65.2213310
  24.6204700  33.8309560  64.8415040  25.8973640  34.6027610  65.0979000
  27.4025950  50.4169840  62.1950880  26.9428920  51.1685650  61.8208900
  26.7738410  49.6976310  62.1365680  14.2276570  46.5113080  64.5849600
  13.5010630  45.8918370  64.5175550  14.2885720  46.9053690  63.7147680
  17.8321670  48.7258080  61.3699010  18.3486690  48.1145440  60.8447270
  18.4819050  49.2286860  61.8610020  20.5717170  49.6166570  62.1967990
  20.8594980  49.3620870  61.3201000  21.0840390  49.0643930  62.7873560
  21.7894180  33.3556770  62.7764500  21.0065970  33.8302270  63.0561260
  21.4957110  32.4511600  62.6677680  26.3415250  34.0579870  60.8213590
  26.7823340  34.0024970  59.9735190  26.0722840  34.9737880  60.8923770
  28.2053820  33.6895110  58.8322410  28.1442220  32.7456330  58.6853430
  28.9845850  33.7975200  59.3775870  12.5106570  49.8287470  57.7946360
  12.3428610  49.1958150  58.4928250  11.6441080  50.0346870  57.4440550
  13.1334590  33.6604250  55.2978220  13.8913950  33.7733130  54.7242250
  12.6711760  34.4973450  55.2521650  19.6748400  35.7743520  58.2880530
  18.8622910  35.4000410  57.9476410  20.1790040  35.0188600  58.5901720
  24.1773380  32.4385970  59.5263600  24.7802750  33.0106180  60.0012120
  23.4366370  33.0025410  59.3037500  27.3207980  32.8407530  54.8003880
  27.5158610  33.7390980  55.0671310  26.5337850  32.6094610  55.2936830
  14.1169270  48.5220700  55.2396500  13.5916890  48.9028730  54.5358460
  14.0413850  49.1471470  55.9606210  15.5059740  34.1868300  53.8380190
  16.0352500  33.3998100  53.7088140  16.1388060  34.8659490  54.0715720
  17.6997580  33.9243440  56.8925580  17.0700320  33.2230750  57.0595710
  17.1602720  34.6847570  56.6758740  20.6389530  50.5382670  69.5636190
  21.5656840  50.3026940  69.6072150  20.6239960  51.3654670  69.0822220
  17.8253140  33.2027420  69.3278070  17.5437410  33.7061020  68.5638890
  18.2072840  32.4049170  68.9620200  16.7162240  50.4703080  54.1145750
  17.4481060  50.1862360  53.5669640  16.9755910  50.2316360  55.0045130
  15.8777030  46.5867810  54.1192080  15.2485910  47.0552910  54.6677910
  15.9924860  45.7417030  54.5538270  24.4268600  32.6181000  69.9058540
  24.3134050  32.9375610  70.8010060  25.2438340  33.0193510  69.6095820
  27.2067090  49.7652530  69.3877230  27.9992410  49.2701760  69.1803190
  27.5000240  50.4442670  69.9952840  15.4810620  42.7272300  43.0278310
  14.6495500  42.4721010  43.4274820  16.0891600  42.7983070  43.7636230
  15.4611880  46.7612390  43.2236330  15.7639920  45.8710130  43.0446550
  16.2055470  47.3182610  42.9958580  11.8535580  40.2879840  42.6960400
  12.4251690  39.5202040  42.6964040  11.8537120  40.5868600  41.7867010
  21.7115530  49.1070690  40.5505670  21.0926970  49.5628190  39.9800110
  22.5667310  49.2622150  40.1495370  20.9053780  45.0909680  42.1572710
  20.8362060  44.1499620  41.9961840  21.6673640  45.1811090  42.7295280
  13.0960450  35.6964200  44.4829330  12.9163290  34.7989950  44.7632090
  12.6940530  36.2436070  45.1576280  13.7147120  38.1924700  43.0911670
  14.3957230  38.4563070  43.7099070  13.3995170  37.3525570  43.4249680
  17.4410640  43.5185800  44.6221180  17.1080020  44.1454720  45.2642250
  17.6177320  44.0447680  43.8422850  15.8723120  35.5900580  44.4518130
  16.2139930  36.4342630  44.1572000  14.9338930  35.7384320  44.5683470
  16.6529740  45.4866600  46.4370360  17.2703740  46.1617680  46.1554810
  15.7922860  45.8954580  46.3457860  11.9462080  44.6766460  35.3177210
  11.5690060  45.1653560  34.5862110  12.2035150  45.3491740  35.9483740
  17.5488410  41.6696420  40.2942570  17.1445410  40.9573670  39.7988470
  17.6351530  41.3249660  41.1830610  18.0170110  45.3563980  42.4581780
  17.7198400  44.7509450  41.7789560  18.9669930  45.3941290  42.3471140
  16.2617030  38.4439630  44.0741610  16.8131620  38.5534970  43.2994860
  16.7760540  38.8177230  44.7896840  17.1088540  45.0945670  49.1089580
  16.2117070  45.3185640  49.3562980  17.1341410  45.2180610  48.1600980
  15.9359760  41.9658990  47.6846950  15.7967530  42.8381790  48.0534350
  15.0541120  41.6231800  47.5394890  22.2589140  46.8834860  38.9912080
  22.6985050  47.6259190  38.5767470  22.1976030  47.1261430  39.9151040
  17.7340110  47.9080690  49.8932100  17.7055540  48.3123640  49.0260530
  17.5705080  46.9791050  49.7303700  14.2493040  40.5641400  37.7949220
  14.1290640  41.2903490  37.1830490  13.9393930  39.7944310  37.3177130
  11.8878410  43.7356540  43.6017860  11.9658830  43.8705310  42.6573580
  12.5020090  43.0272430  43.7945980  13.1326040  45.4356730  40.0124040
  12.7254120  45.5771320  39.1577640  14.0239050  45.1516890  39.8095250
  22.9504920  49.5848640  46.9191090  23.4649590  49.4956650  47.7213520
  22.1074000  49.9308340  47.2119000  17.4047700  49.6502510  38.1246710
  17.2290180  48.7338050  37.9114510  16.5503440  50.0089800  38.3644510
  11.9437930  44.7770710  46.1412320  12.1068970  44.3076070  45.3231690
  12.4090380  44.2694270  46.8061160  18.9470130  39.9295620  49.5714410
  18.8513730  38.9890350  49.4214810  19.7902110  40.1510690  49.1762480
  14.0780670  36.3409290  47.7248190  13.6844060  37.1884500  47.9320970
  13.3899070  35.7035660  47.9156830  11.3797720  34.2637750  41.7578270
  11.0910770  34.8340610  42.4703250  12.1243480  33.7842200  42.1209500
  11.5667950  38.2057870  32.9680990  11.4842620  39.1488630  33.1095980
  11.2151010  38.0632780  32.0893340  13.5176910  44.1522140  48.3008130
  13.1331700  43.5115810  48.8991090  13.8289100  44.8558260  48.8702860
  17.4573420  40.0407320  46.1000960  17.1530490  40.9199300  46.3251320
  18.4119880  40.1007110  46.1358400  15.9855210  44.2468310  36.6967810
  15.2117470  43.7065930  36.5366530  16.7149840  43.7274920  36.3585570
  16.0292610  43.9148690  40.3346620  16.5471280  43.1116950  40.2803510
  15.5776630  43.8527830  41.1763450  13.5137150  40.8810060  47.2472320
  13.1552090  41.5463910  47.8345660  13.2191710  40.0493610  47.6184940
  16.7150270  41.3394300  50.1311870  16.4150410  41.4851480  49.2339690
  17.4861510  40.7799590  50.0385260  22.0578720  46.1363300  48.1267000
  22.0723260  45.2044260  47.9085910  21.3503820  46.2223060  48.7656770
  12.0245200  40.8801320  33.8706920  12.8940050  41.1626120  34.1542840
  11.5335520  41.6937190  33.7555730  21.4912620  47.7780870  45.2207500
  22.1354840  47.9840250  45.8980920  21.8542060  47.0169270  44.7678350
  12.3916450  50.0928700  34.4368550  12.7514090  50.6918040  33.7825820
  12.2508790  50.6388590  35.2103580  12.0885720  34.3703300  47.9244420
  11.3744240  34.5700220  48.5297030  12.5080760  33.5942870  48.2959220
  12.3758310  48.3583560  48.9110950  12.4849430  47.4178300  48.7706340
  11.7238870  48.6238310  48.2624680  20.3670900  46.6299450  50.3109070
  20.0467770  45.9108690  50.8554760  19.6929260  47.3054520  50.3845130
  14.0091710  42.6974790  35.9988980  13.4019660  43.4373690  36.0084280
  14.4841060  42.7874150  35.1727180  20.0362780  50.0574460  38.6115080
  20.2904280  50.0195850  37.6894450  19.0875260  49.9307790  38.6043330
  15.5158470  50.2406400  41.5344980  16.2520950  49.6921860  41.8053550
  15.8999390  51.1062410  41.3950970  12.4003950  46.3079970  37.4086490
  11.4743730  46.5501110  37.3991900  12.8660380  47.1354230  37.2871240
  14.5216750  49.4252470  50.7230560  15.3229480  49.7464520  51.1365960
  14.0068570  49.0648050  51.4450470  12.2414560  41.9125930  49.6666610
  12.7453580  41.3333210  50.2382840  11.5021980  42.1966160  50.2042980
  14.2737640  40.0555520  50.5616680  14.3142980  39.7569390  51.4701910
  15.1283140  40.4563130  50.4024200  16.2143450  38.6347620  48.5291170
  15.6839910  38.1438570  47.9014510  16.8831520  39.0631820  47.9949100
  16.7015750  35.6009990  48.6088460  16.6072620  34.9830740  47.8839330
  16.1213140  36.3276280  48.3818370  19.4677190  34.1583230  45.6415850
  19.0194490  34.1807490  44.7961400  18.8342390  33.7602250  46.2386150
  17.7244160  49.3590570  47.3786020  17.1865250  50.0836630  47.0594720
  17.9778120  48.8820910  46.5883360  20.5806370  50.5941780  47.6372670
  20.5065070  51.4976920  47.9445040  19.6785210  50.2753680  47.6094740
  11.9833660  47.9216370  40.9406290  12.3136670  47.0537430  40.7084930
  12.4124660  48.1274890  41.7711250  16.5795580  46.2525380  38.6008260
  16.2791120  46.1290350  39.5012170  16.4733070  45.3933970  38.1923990
  12.4723870  48.7886960  43.6787920  12.0354860  48.9687760  44.5112070
  13.0401550  49.5461580  43.5369640  12.3048300  41.3007190  40.0376800
  11.6497140  41.0318830  39.3936500  13.1426250  41.1911670  39.5878780
  13.3424230  41.6859760  44.5780140  13.7097270  41.5987160  45.4576160
  12.7735050  40.9226310  44.4787000  12.8940230  38.5968850  48.4838560
  11.9996280  38.5635610  48.8232270  13.4337780  38.7955640  49.2489810
  27.2932280  33.0658540  46.1891420  27.9304500  33.6792680  46.5550610
  27.4407170  33.1019200  45.2440650  14.7576310  46.1992450  49.7400290
  14.7145940  45.8285360  50.6214750  14.8887320  47.1370020  49.8802110
  18.4582340  47.7552040  45.3410010  18.2173700  48.0226600  44.4540530
  19.3984980  47.9257770  45.3960870  20.6636760  34.2184730  49.0966520
  20.6025650  34.8106560  49.8461930  21.6037140  34.1110690  48.9516780
  13.8232580  32.5549050  48.8497870  14.3715570  32.3737100  48.0863980
  13.8887890  31.7643160  49.3854180  14.5964340  49.1454700  46.8598070
  14.0024660  49.0139400  47.5988110  14.5888180  48.3092840  46.3940170
  14.2276570  46.5113080  45.8106110  13.5010630  45.8918370  45.7432060
  14.2885720  46.9053690  44.9404190  17.8321670  48.7258080  42.5955520
  18.3486690  48.1145440  42.0703780  18.4819050  49.2286860  43.0866530
  20.5717170  49.6166570  43.4224500  20.8594980  49.3620870  42.5457510
  21.0840390  49.0643930  44.0130070  12.5106570  49.8287470  39.0202870
  12.3428610  49.1958150  39.7184760  11.6441080  50.0346870  38.6697060
  14.1169270  48.5220700  36.4653010  13.5916890  48.9028730  35.7614970
  14.0413850  49.1471470  37.1862720  20.6389530  50.5382670  50.7892700
  21.5656840  50.3026940  50.8328660  20.6239960  51.3654670  50.3078730
  17.8253140  33.2027420  50.5534580  17.5437410  33.7061020  49.7895400
  18.2072840  32.4049170  50.1876710  16.7162240  50.4703080  35.3402260
  17.4481060  50.1862360  34.7926150  16.9755910  50.2316360  36.2301640
  15.8777030  46.5867810  35.3448590  15.2485910  47.0552910  35.8934420
  15.9924860  45.7417030  35.7794780  24.4268600  32.6181000  51.1315050
  24.3134050  32.9375610  52.0266570  25.2438340  33.0193510  50.8352330
  13.8902570  37.6874190  18.0377210  13.0019270  38.0290160  17.9357090
  14.1743760  37.4874510  17.1458040  11.8535580  40.2879840  23.9216910
  12.4251690  39.5202040  23.9220550  11.8537120  40.5868600  23.0123520
  21.7115530  49.1070690  21.7762180  21.0926970  49.5628190  21.2056620
  22.5667310  49.2622150  21.3751880  13.0960450  35.6964200  25.7085840
  12.9163290  34.7989950  25.9888600  12.6940530  36.2436070  26.3832790
  16.0663960  36.2705690  19.0715590  16.1730710  37.1709420  19.3784350
  15.1556320  36.2223660  18.7810240  13.7147120  38.1924700  24.3168180
  14.3957230  38.4563070  24.9355580  13.3995170  37.3525570  24.6506190
  16.1907790  33.8790620  27.6704190  16.1926230  34.3963010  26.8650090
  15.3612100  33.4020800  27.6474120  11.9462080  44.6766460  16.5433720
  11.5690060  45.1653560  15.8118620  12.2035150  45.3491740  17.1740250
  17.5488410  41.6696420  21.5199080  17.1445410  40.9573670  21.0244980
  17.6351530  41.3249660  22.4087120  27.7310900  33.1981600  14.5628390
  27.4183560  33.2908430  15.4627460  28.4923370  33.7762630  14.5125820
  14.2493040  40.5641400  19.0205730  14.1290640  41.2903490  18.4087000
  13.9393930  39.7944310  18.5433640  11.8878410  43.7356540  24.8274370
  11.9658830  43.8705310  23.8830090  12.5020090  43.0272430  25.0202490
  13.1326040  45.4356730  21.2380550  12.7254120  45.5771320  20.3834150
  14.0239050  45.1516890  21.0351760  22.9504920  49.5848640  28.1447600
  23.4649590  49.4956650  28.9470030  22.1074000  49.9308340  28.4375510
  17.4047700  49.6502510  19.3503220  17.2290180  48.7338050  19.1371020
  16.5503440  50.0089800  19.5901020  16.7156700  33.9076470  22.4029400
  16.2724850  34.6886010  22.0713920  17.2741690  34.2306360  23.1100340
  18.7532600  34.4523800  24.2619000  19.0504930  35.3586630  24.1811020
  19.3018160  33.9642580  23.6478570  16.5070920  39.0310040  20.1310650
  16.2811840  38.8147210  21.0357270  15.7263450  39.4638500  19.7856620
  14.0780670  36.3409290  28.9504700  13.6844060  37.1884500  29.1577480
  13.3899070  35.7035660  29.1413340  11.3797720  34.2637750  22.9834780
  11.0910770  34.8340610  23.6959760  12.1243480  33.7842200  23.3466010
  11.5667950  38.2057870  14.1937500  11.4842620  39.1488630  14.3352490
  11.2151010  38.0632780  13.3149850  15.2168460  36.8223390  22.2202060
  14.8768510  37.2998620  22.9769110  14.4545780  36.3688510  21.8603160
  18.4407730  40.2510120  15.6497910  17.8724630  39.8028370  15.0233820
  19.1496730  40.6102900  15.1163060  12.5314540  35.7442370  21.1366730
  12.2461460  35.3798040  21.9745350  12.4693400  35.0122830  20.5229870
  15.9855210  44.2468310  17.9224320  15.2117470  43.7065930  17.7623040
  16.7149840  43.7274920  17.5842080  16.0292610  43.9148690  21.5603130
  16.5471280  43.1116950  21.5060020  15.5776630  43.8527830  22.4019960
  19.8852800  45.2628500  19.6046350  20.5723930  45.8097710  19.9853940
  19.0985220  45.8069230  19.6395960  12.0245200  40.8801320  15.0963430
  12.8940050  41.1626120  15.3799350  11.5335520  41.6937190  14.9812240
  19.1880010  42.2674530  19.2171710  19.6442790  43.0779780  19.4431900
  18.8368220  41.9497670  20.0490200  21.4912620  47.7780870  26.4464010
  22.1354840  47.9840250  27.1237430  21.8542060  47.0169270  25.9934860
  15.0891790  32.6112180  19.6894230  14.9606420  32.6030080  20.6379150
  14.2653810  32.9495270  19.3385240  12.3916450  50.0928700  15.6625060
  12.7514090  50.6918040  15.0082330  12.2508790  50.6388590  16.4360090
  12.0885720  34.3703300  29.1500930  11.3744240  34.5700220  29.7553540
  12.5080760  33.5942870  29.5215730  12.3758310  48.3583560  30.1367460
  12.4849430  47.4178300  29.9962850  11.7238870  48.6238310  29.4881190
  18.4085070  47.4759900  16.4798730  18.3995170  48.2089590  15.8643240
  17.4883430  47.2291480  16.5725690  14.0091710  42.6974790  17.2245490
  13.4019660  43.4373690  17.2340790  14.4841060  42.7874150  16.3983690
  20.0362780  50.0574460  19.8371590  20.2904280  50.0195850  18.9150960
  19.0875260  49.9307790  19.8299840  16.0197000  42.6585940  14.9734060
  16.7860270  42.5467300  15.5359490  16.0971690  41.9623910  14.3210830
  14.7143760  40.0911010  15.6566950  14.7947350  39.1438520  15.7684350
  15.6063510  40.4217890  15.7627610  15.5158470  50.2406400  22.7601490
  16.2520950  49.6921860  23.0310060  15.8999390  51.1062410  22.6207480
  12.4003950  46.3079970  18.6343000  11.4743730  46.5501110  18.6248410
  12.8660380  47.1354230  18.5127750  14.5216750  49.4252470  31.9487070
  15.3229480  49.7464520  32.3622470  14.0068570  49.0648050  32.6706980
  18.6260780  49.4136710  14.5827060  19.4189390  49.7025540  14.1308850
  18.1065130  48.9828880  13.9039540  24.7881750  49.2612630  30.5071890
  25.7403500  49.1770650  30.4572130  24.6409970  49.9254340  31.1805680
  12.2414560  41.9125930  30.8923120  12.7453580  41.3333210  31.4639350
  11.5021980  42.1966160  31.4299490  19.1438180  44.6340120  14.4469410
  19.0388820  44.0192470  15.1730790  18.9762400  44.1106010  13.6632420
  18.0516030  42.6551070  16.9476700  18.4732450  42.4890940  17.7908090
  18.1766870  41.8451300  16.4531840  20.5643670  41.6788680  14.1953800
  21.0849330  40.9637700  13.8294950  21.2112070  42.3174550  14.4954310
  16.9474930  38.7284300  13.8934860  16.7463990  37.8651660  14.2548200
  16.7766980  38.6417660  12.9556460  17.7244160  49.3590570  28.6042530
  17.1865250  50.0836630  28.2851230  17.9778120  48.8820910  27.8139870
  15.7457730  35.8284920  13.8812740  16.0483630  35.8352350  12.9731890
  16.4852320  35.4782780  14.3780400  20.5806370  50.5941780  28.8629180
  20.5065070  51.4976920  29.1701550  19.6785210  50.2753680  28.8351250
  18.9642660  34.7719540  14.8668940  18.6164660  34.0943530  14.2871390
  19.1655430  34.3109050  15.6812330  21.1291700  49.7600290  16.4855540
  22.0242490  50.0985260  16.5074300  21.1609330  49.0379700  15.8579820
  14.7687860  45.1327340  14.7142540  15.2062730  45.6757010  15.3700120
  15.2535590  44.3074290  14.7238880  11.9833660  47.9216370  22.1662800
  12.3136670  47.0537430  21.9341440  12.4124660  48.1274890  22.9967760
  16.5795580  46.2525380  19.8264770  16.2791120  46.1290350  20.7268680
  16.4733070  45.3933970  19.4180500  12.4723870  48.7886960  24.9044430
  12.0354860  48.9687760  25.7368580  13.0401550  49.5461580  24.7626150
  12.3048300  41.3007190  21.2633310  11.6497140  41.0318830  20.6193010
  13.1426250  41.1911670  20.8135290  25.2538740  36.0948480  15.4851800
  25.6723620  35.9079460  14.6448460  24.9474800  35.2427530  15.7954730
  12.8940230  38.5968850  29.7095070  11.9996280  38.5635610  30.0488780
  13.4337780  38.7955640  30.4746320  11.5186380  38.5106120  17.2058640
  10.6150460  38.7736320  17.0310300  12.0027000  38.7817290  16.4258600
  14.0613590  37.5671660  15.1153020  14.7705290  37.1454880  14.6300300
  13.3453530  37.6346890  14.4836370  13.7087750  33.6210990  14.1555670
  14.4315880  34.1619930  14.4736890  13.9812270  33.3474410  13.2797210
  13.3979940  32.8717180  24.0578290  14.0456130  32.3214560  23.6173450
  13.8181780  33.1260330  24.8794100  29.8356830  34.9572330  14.1971070
  30.7606140  34.8253510  13.9889360  29.8132620  35.0365150  15.1507520
  13.1511940  33.0272850  26.8003610  12.8026760  33.4836670  27.5661790
  12.8199640  32.1329980  26.8826040  13.8232580  32.5549050  30.0754380
  14.3715570  32.3737100  29.3120490  13.8887890  31.7643160  30.6110690
  14.5964340  49.1454700  28.0854580  14.0024660  49.0139400  28.8244620
  14.5888180  48.3092840  27.6196680  17.8321670  48.7258080  23.8212030
  18.3486690  48.1145440  23.2960290  18.4819050  49.2286860  24.3123040
  20.5717170  49.6166570  24.6481010  20.8594980  49.3620870  23.7714020
  21.0840390  49.0643930  25.2386580  12.5106570  49.8287470  20.2459380
  12.3428610  49.1958150  20.9441270  11.6441080  50.0346870  19.8953570
  13.1334590  33.6604250  17.7491240  13.8913950  33.7733130  17.1755270
  12.6711760  34.4973450  17.7034670  14.1169270  48.5220700  17.6909520
  13.5916890  48.9028730  16.9871480  14.0413850  49.1471470  18.4119230
  15.5059740  34.1868300  16.2893210  16.0352500  33.3998100  16.1601160
  16.1388060  34.8659490  16.5228740  20.6389530  50.5382670  32.0149210
  21.5656840  50.3026940  32.0585170  20.6239960  51.3654670  31.5335240
  16.7162240  50.4703080  16.5658770  17.4481060  50.1862360  16.0182660
  16.9755910  50.2316360  17.4558150  15.8777030  46.5867810  16.5705100
  15.2485910  47.0552910  17.1190930  15.9924860  45.7417030  17.0051290
  23.3326750  40.6373470   2.7206300  23.2520800  39.7228080   2.4498010
  22.9191170  41.1340540   2.0146010  21.4644790  42.4152490   4.6015570
  20.6886890  41.9352930   4.8914140  22.1157720  41.7358140   4.4271730
  15.4810620  42.7272300   5.4791330  14.6495500  42.4721010   5.8787840
  16.0891600  42.7983070   6.2149250  25.4852220  46.8212680   3.3814700
  25.0233750  46.0499920   3.7101870  26.2977770  46.8478750   3.8867150
  15.4611880  46.7612390   5.6749350  15.7639920  45.8710130   5.4959570
  16.2055470  47.3182610   5.4471600  11.8535580  40.2879840   5.1473420
  12.4251690  39.5202040   5.1477060  11.8537120  40.5868600   4.2380030
  21.7115530  49.1070690   3.0018690  21.0926970  49.5628190   2.4313130
  22.5667310  49.2622150   2.6008390  20.9053780  45.0909680   4.6085730
  20.8362060  44.1499620   4.4474860  21.6673640  45.1811090   5.1808300
  13.0960450  35.6964200   6.9342350  12.9163290  34.7989950   7.2145110
  12.6940530  36.2436070   7.6089300  21.9358950  37.8980060   4.8354660
  22.3123770  37.0251940   4.7228330  21.8378460  38.2338760   3.9445100
  25.7183070  35.3930500   1.7683000  26.5392690  34.9027070   1.8108480
  25.7517150  35.9828160   2.5214840  13.7147120  38.1924700   5.5424690
  14.3957230  38.4563070   6.1612090  13.3995170  37.3525570   5.8762700
  17.9071690  39.2392060   4.6297280  18.4149910  39.7373030   5.2702300
  18.4384930  38.4627260   4.4536640  30.0082620  37.4097250   8.3326630
  29.3034790  37.7978960   7.8141740  30.2740540  38.1047540   8.9347560
  16.1907790  33.8790620   8.8960700  16.1926230  34.3963010   8.0906600
  15.3612100  33.4020800   8.8730630  17.4410640  43.5185800   7.0734200
  17.1080020  44.1454720   7.7155270  17.6177320  44.0447680   6.2935870
  25.9544550  37.3330880   4.5410540  25.2500120  37.6215770   5.1213650
  26.3156710  38.1430990   4.1810100  15.8723120  35.5900580   6.9031150
  16.2139930  36.4342630   6.6085020  14.9338930  35.7384320   7.0196490
  16.6529740  45.4866600   8.8883380  17.2703740  46.1617680   8.6067830
  15.7922860  45.8954580   8.7970880  27.5707330  46.9506010   6.8038020
  26.8870850  47.6205120   6.7954690  28.1101620  47.1486660   6.0382880
  29.0231470  36.7785670   4.9319750  28.0756380  36.8124650   5.0635180
  29.3481460  37.5924620   5.3169110  19.5551010  33.0782850   3.2275740
  19.8625990  32.5229740   2.5111240  18.6251710  33.2127310   3.0448730
  25.1066070  48.7950140   5.5183200  25.1193230  48.3912430   4.6505460
  24.5541290  49.5697430   5.4144630  24.5051510  43.6979980   6.8465810
  24.9220300  43.4840090   6.0119270  25.2291330  43.9552770   7.4174430
  28.4513610  42.0967200   6.9382050  27.6232240  42.1660290   6.4632180
  29.0464090  42.6821510   6.4697880  25.4155620  38.8836520   7.8836920
  25.0026800  39.7090230   8.1376910  24.6831570  38.2981560   7.6913280
  17.5488410  41.6696420   2.7455590  17.1445410  40.9573670   2.2501490
  17.6351530  41.3249660   3.6343630  18.0170110  45.3563980   4.9094800
  17.7198400  44.7509450   4.2302580  18.9669930  45.3941290   4.7984160
  16.2617030  38.4439630   6.5254630  16.8131620  38.5534970   5.7507880
  16.7760540  38.8177230   7.2409860  26.1055720  48.9295850   8.5717900
  25.6286280  49.7368040   8.3790510  25.4217510  48.2774180   8.7244110
  17.1088540  45.0945670  11.5602600  16.2117070  45.3185640  11.8076000
  17.1341410  45.2180610  10.6114000  15.9359760  41.9658990  10.1359970
  15.7967530  42.8381790  10.5047370  15.0541120  41.6231800   9.9907910
  17.7340110  47.9080690  12.3445120  17.7055540  48.3123640  11.4773550
  17.5705080  46.9791050  12.1816720  29.6854930  48.6907790  13.6409290
  30.1614650  49.1690680  14.3198370  30.3062090  48.6225280  12.9154790
  11.8878410  43.7356540   6.0530880  11.9658830  43.8705310   5.1086600
  12.5020090  43.0272430   6.2459000  29.0888180  45.8820640  10.8009300
  29.2151240  45.6432520   9.8826480  29.1309560  45.0505180  11.2731380
  22.9504920  49.5848640   9.3704110  23.4649590  49.4956650  10.1726540
  22.1074000  49.9308340   9.6632020  28.9412190  37.9353100  11.7659040
  28.3256460  38.4432770  11.2374500  28.6208610  37.0351430  11.7084980
  11.9437930  44.7770710   8.5925340  12.1068970  44.3076070   7.7744710
  12.4090380  44.2694270   9.2574180  16.7156700  33.9076470   3.6285910
  16.2724850  34.6886010   3.2970430  17.2741690  34.2306360   4.3356850
  21.0026510  36.7744990   9.2321230  20.5405880  36.9828010  10.0441170
  20.6004620  35.9604340   8.9291900  26.0031020  37.9953940  10.3617890
  25.1524610  37.6959690  10.6826960  25.8432810  38.2395950   9.4501710
  23.0980730  39.4955690  12.4616680  23.4234140  38.6619440  12.1218910
  23.8861060  40.0184210  12.6095010  18.7532600  34.4523800   5.4875510
  19.0504930  35.3586630   5.4067530  19.3018160  33.9642580   4.8735080
  18.9470130  39.9295620  12.0227430  18.8513730  38.9890350  11.8727830
  19.7902110  40.1510690  11.6275500  14.0780670  36.3409290  10.1761210
  13.6844060  37.1884500  10.3833990  13.3899070  35.7035660  10.3669850
  20.6525720  36.4244260  13.2457950  19.9624040  36.2316460  13.8804040
  21.3958020  36.7078900  13.7782250  11.3797720  34.2637750   4.2091290
  11.0910770  34.8340610   4.9216270  12.1243480  33.7842200   4.5722520
  22.9288690  40.2642700   6.0811870  22.1969810  40.7729510   6.4301970
  22.5313030  39.4472680   5.7800650  19.3666080  36.9396900   4.4864360
  19.3702140  36.4986850   3.6368900  20.2617200  37.2614230   4.5936180
  15.2168460  36.8223390   3.4458570  14.8768510  37.2998620   4.2025620
  14.4545780  36.3688510   3.0859670  23.3914600  35.7176380   5.4934810
  23.4087340  36.1685030   6.3376660  23.1430180  34.8182020   5.7068250
  26.8185350  33.1308560  11.3321190  27.1431120  32.3998220  11.8579170
  26.8541860  32.8122200  10.4302180  13.5176910  44.1522140  10.7521150
  13.1331700  43.5115810  11.3504110  13.8289100  44.8558260  11.3215880
  19.6674050  40.9998680   6.2329770  20.0344180  40.5257250   6.9791110
  19.4779110  41.8740250   6.5738110  12.5314540  35.7442370   2.3623240
  12.2461460  35.3798040   3.2001860  12.4693400  35.0122830   1.7486380
  17.4573420  40.0407320   8.5513980  17.1530490  40.9199300   8.7764340
  18.4119880  40.1007110   8.5871420  26.7443190  43.2433670   4.9407220
  27.4642310  43.7388960   4.5503330  26.5425010  42.5651560   4.2961090
  22.1261990  43.3142730  10.8276220  22.0599300  42.3938400  10.5733810
  21.4967130  43.4118170  11.5420860  16.0292610  43.9148690   2.7859640
  16.5471280  43.1116950   2.7316530  15.5776630  43.8527830   3.6276470
  13.5137150  40.8810060   9.6985340  13.1552090  41.5463910  10.2858680
  13.2191710  40.0493610  10.0697960  16.7150270  41.3394300  12.5824890
  16.4150410  41.4851480  11.6852710  17.4861510  40.7799590  12.4898280
  22.0578720  46.1363300  10.5780020  22.0723260  45.2044260  10.3598930
  21.3503820  46.2223060  11.2169790  28.2689930  42.7770640   9.9248600
  27.5438120  43.3699420   9.7277990  28.7965390  42.7694180   9.1261970
  23.7989520  44.5030810   3.4232450  24.1513340  43.9058940   2.7633820
  22.9151850  44.1775040   3.5940700  21.4912620  47.7780870   7.6720520
  22.1354840  47.9840250   8.3493940  21.8542060  47.0169270   7.2191370
  22.7644700  45.7813220   6.3897970  23.4066930  45.0806380   6.5030140
  23.2894050  46.5611660   6.2094860  24.5382320  46.5808120   9.5934030
  24.8738560  47.1674810  10.2711950  23.6182660  46.4500830   9.8231820
  12.0885720  34.3703300  10.3757440  11.3744240  34.5700220  10.9810050
  12.5080760  33.5942870  10.7472240  12.3758310  48.3583560  11.3623970
  12.4849430  47.4178300  11.2219360  11.7238870  48.6238310  10.7137700
  20.3670900  46.6299450  12.7622090  20.0467770  45.9108690  13.3067780
  19.6929260  47.3054520  12.8358150  23.5824500  36.8625610   8.1258890
  23.9505320  36.0420820   8.4538460  22.7222700  36.9227500   8.5414540
  20.5426490  39.5165200   8.3496860  21.0411740  39.9911020   9.0148710
  20.6849440  38.5928720   8.5566890  27.7493350  35.7333160   9.1925250
  27.2466950  36.4738560   9.5319060  28.5650010  36.1217160   8.8762040
  26.0415360  40.9766340   2.6386610  25.1005500  40.9916570   2.8134300
  26.3559430  40.1902300   3.0846910  28.0440940  48.1475190   4.3140870
  28.1688360  48.9706360   4.7864680  28.9106500  47.9365920   3.9665020
  15.5158470  50.2406400   3.9858000  16.2520950  49.6921860   4.2566570
  15.8999390  51.1062410   3.8463990  14.5216750  49.4252470  13.1743580
  15.3229480  49.7464520  13.5878980  14.0068570  49.0648050  13.8963490
  24.7881750  49.2612630  11.7328400  25.7403500  49.1770650  11.6828640
  24.6409970  49.9254340  12.4062190  12.2414560  41.9125930  12.1179630
  12.7453580  41.3333210  12.6895860  11.5021980  42.1966160  12.6556000
  19.2952500  43.3196920  11.6515150  18.5298170  43.8881920  11.5669820
  19.4768460  43.0273130  10.7583380  26.4375850  45.0502250  12.2090170
  27.1785320  45.3878010  11.7057630  25.6748530  45.2194310  11.6559940
  14.2737640  40.0555520  13.0129700  14.3142980  39.7569390  13.9214930
  15.1283140  40.4563130  12.8537220  16.2143450  38.6347620  10.9804190
  15.6839910  38.1438570  10.3527530  16.8831520  39.0631820  10.4462120
  16.7015750  35.6009990  11.0601480  16.6072620  34.9830740  10.3352350
  16.1213140  36.3276280  10.8331390  19.4677190  34.1583230   8.0928870
  19.0194490  34.1807490   7.2474420  18.8342390  33.7602250   8.6899170
  19.8736740  43.0537560   8.7141310  20.2924850  43.8970290   8.5417550
  18.9545370  43.1909600   8.4848090  22.2100640  40.7853740  10.0979150
  22.3296850  40.1894880  10.8373990  23.0694640  40.8223430   9.6780450
  24.5488540  41.3390930   8.6741660  24.0223760  41.8633550   8.0706800
  24.8919880  41.9718320   9.3051390  17.7244160  49.3590570   9.8299040
  17.1865250  50.0836630   9.5107740  17.9778120  48.8820910   9.0396380
  18.9769410  37.3275090  11.3554970  19.5669100  37.0190940  12.0432790
  18.1589650  36.8554840  11.5114870  23.7962840  36.9440900  11.5887990
  23.1078360  36.2822440  11.5237980  24.5168860  36.4979170  12.0336450
  20.5806370  50.5941780  10.0885690  20.5065070  51.4976920  10.3958060
  19.6785210  50.2753680  10.0607760  11.9833660  47.9216370   3.3919310
  12.3136670  47.0537430   3.1597950  12.4124660  48.1274890   4.2224270
  12.4723870  48.7886960   6.1300940  12.0354860  48.9687760   6.9625090
  13.0401550  49.5461580   5.9882660  28.1086050  48.2903960  10.4178250
  27.5088040  48.3496520   9.6742170  28.2379950  47.3508940  10.5475100
  12.3048300  41.3007190   2.4889820  11.6497140  41.0318830   1.8449520
  13.1426250  41.1911670   2.0391800  29.8103930  43.6319360   3.1024090
  30.1812760  42.8486680   2.6960060  30.4505860  44.3208460   2.9241390
  26.7937690  45.0155940   8.5154410  25.9797530  45.4453100   8.7780200
  27.2011890  45.6274350   7.9023460  13.3424230  41.6859760   7.0293160
  13.7097270  41.5987160   7.9089180  12.7735050  40.9226310   6.9300020
  28.1428090  40.1544140  10.0423630  27.9114180  39.9256890   9.1421580
  28.4032640  41.0743690   9.9968520  12.8940230  38.5968850  10.9351580
  11.9996280  38.5635610  11.2745290  13.4337780  38.7955640  11.7002830
  26.5816160  35.3800570  12.8203330  27.4586340  35.3883970  13.2037330
  26.5937000  34.6431410  12.2095680  28.0279430  39.2330110   3.7091350
  28.5516910  38.7392760   3.0781520  28.6138850  39.3680470   4.4538920
  28.2069150  39.3169980   7.2310900  27.2571860  39.2833520   7.3455890
  28.3882160  40.2270090   6.9960670  13.3979940  32.8717180   5.2834800
  14.0456130  32.3214560   4.8429960  13.8181780  33.1260330   6.1050610
  28.9466560  37.1264410   2.1821440  28.8365840  36.9720450   3.1203710
  29.7074150  36.5985350   1.9396850  27.2932280  33.0658540   8.6404440
  27.9304500  33.6792680   9.0063630  27.4407170  33.1019200   7.6953670
  13.1511940  33.0272850   8.0260120  12.8026760  33.4836670   8.7918300
  12.8199640  32.1329980   8.1082550  14.7576310  46.1992450  12.1913310
  14.7145940  45.8285360  13.0727770  14.8887320  47.1370020  12.3315130
  18.4582340  47.7552040   7.7923030  18.2173700  48.0226600   6.9053550
  19.3984980  47.9257770   7.8473890  20.6636760  34.2184730  11.5479540
  20.6025650  34.8106560  12.2974950  21.6037140  34.1110690  11.4029800
  23.3011320  33.8754790  11.1871830  23.9151730  34.1934080  10.5252910
  23.8460880  33.3903380  11.8067690  29.7186500  49.7746420   8.5933670
  29.2244780  50.1715290   7.8760800  29.1099790  49.1495630   8.9870950
  13.8232580  32.5549050  11.3010890  14.3715570  32.3737100  10.5377000
  13.8887890  31.7643160  11.8367200  14.5964340  49.1454700   9.3111090
  14.0024660  49.0139400  10.0501130  14.5888180  48.3092840   8.8453190
  24.0419360  32.4386930   7.5141120  23.1679200  32.7722040   7.3114050
  23.9330110  31.9660110   8.3392990  24.9491340  34.6457800   8.8982840
  24.6204700  33.8309560   8.5184570  25.8973640  34.6027610   8.7748530
  27.4025950  50.4169840   5.8720410  26.9428920  51.1685650   5.4978430
  26.7738410  49.6976310   5.8135210  14.2276570  46.5113080   8.2619130
  13.5010630  45.8918370   8.1945080  14.2885720  46.9053690   7.3917210
  17.8321670  48.7258080   5.0468540  18.3486690  48.1145440   4.5216800
  18.4819050  49.2286860   5.5379550  20.5717170  49.6166570   5.8737520
  20.8594980  49.3620870   4.9970530  21.0840390  49.0643930   6.4643090
  21.7894180  33.3556770   6.4534030  21.0065970  33.8302270   6.7330790
  21.4957110  32.4511600   6.3447210  26.3415250  34.0579870   4.4983120
  26.7823340  34.0024970   3.6504720  26.0722840  34.9737880   4.5693300
  28.2053820  33.6895110   2.5091940  28.1442220  32.7456330   2.3622960
  28.9845850  33.7975200   3.0545400  24.1773380  32.4385970   3.2033130
  24.7802750  33.0106180   3.6781650  23.4366370  33.0025410   2.9807030
  20.6389530  50.5382670  13.2405720  21.5656840  50.3026940  13.2841680
  20.6239960  51.3654670  12.7591750  17.8253140  33.2027420  13.0047600
  17.5437410  33.7061020  12.2408420  18.2072840  32.4049170  12.6389730
  24.4268600  32.6181000  13.5828070  24.3134050  32.9375610  14.4779590
  25.2438340  33.0193510  13.2865350  27.2067090  49.7652530  13.0646760
  27.9992410  49.2701760  12.8572720  27.5000240  50.4442670  13.6722370
  23.3326750  21.8629980  77.8180260  23.2520800  20.9484590  77.5471970
  22.9191170  22.3597050  77.1119970  21.4644790  23.6409000  79.6989530
  20.6886890  23.1609440  79.9888100  22.1157720  22.9614650  79.5245690
  15.4810620  23.9528810  80.5765290  14.6495500  23.6977520  80.9761800
  16.0891600  24.0239580  81.3123210  25.4852220  28.0469190  78.4788660
  25.0233750  27.2756430  78.8075830  26.2977770  28.0735260  78.9841110
  15.4611880  27.9868900  80.7723310  15.7639920  27.0966640  80.5933530
  16.2055470  28.5439120  80.5445560  13.8902570  18.9130700  74.3607680
  13.0019270  19.2546670  74.2587560  14.1743760  18.7131020  73.4688510
  11.8535580  21.5136350  80.2447380  12.4251690  20.7458550  80.2451020
  11.8537120  21.8125110  79.3353990  21.7115530  30.3327200  78.0992650
  21.0926970  30.7884700  77.5287090  22.5667310  30.4878660  77.6982350
  20.9053780  26.3166190  79.7059690  20.8362060  25.3756130  79.5448820
  21.6673640  26.4067600  80.2782260  21.9358950  19.1236570  79.9328620
  22.3123770  18.2508450  79.8202290  21.8378460  19.4595270  79.0419060
  16.0663960  17.4962200  75.3946060  16.1730710  18.3965930  75.7014820
  15.1556320  17.4480170  75.1040710  25.7183070  16.6187010  76.8656960
  26.5392690  16.1283580  76.9082440  25.7517150  17.2084670  77.6188800
  13.7147120  19.4181210  80.6398650  14.3957230  19.6819580  81.2586050
  13.3995170  18.5782080  80.9736660  17.9071690  20.4648570  79.7271240
  18.4149910  20.9629540  80.3676260  18.4384930  19.6883770  79.5510600
  22.5778880  25.2166440  75.4924560  21.9596150  25.6815890  74.9287280
  23.0902130  25.9093920  75.9094070  25.9544550  18.5587390  79.6384500
  25.2500120  18.8472280  80.2187610  26.3156710  19.3687500  79.2784060
  11.9462080  25.9022970  72.8664190  11.5690060  26.3910070  72.1349090
  12.2035150  26.5748250  73.4970720  27.5707330  28.1762520  81.9011980
  26.8870850  28.8461630  81.8928650  28.1101620  28.3743170  81.1356840
  29.0231470  18.0042180  80.0293710  28.0756380  18.0381160  80.1609140
  29.3481460  18.8181130  80.4143070  19.5551010  14.3039360  78.3249700
  19.8625990  13.7486250  77.6085200  18.6251710  14.4383820  78.1422690
  25.1066070  30.0206650  80.6157160  25.1193230  29.6168940  79.7479420
  24.5541290  30.7953940  80.5118590  26.4011490  26.7422870  75.7047330
  26.2907820  25.7997200  75.8296750  26.3979740  27.1038510  76.5910090
  21.9431770  22.3688190  75.0609820  21.0161050  22.3025570  75.2898290
  22.0956590  23.3068320  74.9465060  21.9300850  18.6405190  72.0576980
  20.9904520  18.8019150  72.1429440  22.2484110  19.3590870  71.5112970
  28.4513610  23.3223710  82.0356010  27.6232240  23.3916800  81.5606140
  29.0464090  23.9078020  81.5671840  25.9729060  23.9308490  75.5645070
  25.3541480  23.5928040  74.9171370  25.9553510  23.2868250  76.2724260
  17.5488410  22.8952930  77.8429550  17.1445410  22.1830180  77.3475450
  17.6351530  22.5506170  78.7317590  18.0170110  26.5820490  80.0068760
  17.7198400  25.9765960  79.3276540  18.9669930  26.6197800  79.8958120
  24.1493760  23.1695300  72.5717820  24.5887040  22.3317730  72.4255640
  24.8622180  23.8024700  72.6581960  22.2589140  28.1091370  76.5399060
  22.6985050  28.8515700  76.1254450  22.1976030  28.3517940  77.4638020
  27.7310900  14.4238110  70.8858860  27.4183560  14.5164940  71.7857930
  28.4923370  15.0019140  70.8356290  14.2493040  21.7897910  75.3436200
  14.1290640  22.5160000  74.7317470  13.9393930  21.0200820  74.8664110
  11.8878410  24.9613050  81.1504840  11.9658830  25.0961820  80.2060560
  12.5020090  24.2528940  81.3432960  13.1326040  26.6613240  77.5611020
  12.7254120  26.8027830  76.7064620  14.0239050  26.3773400  77.3582230
  24.9259320  31.0960490  73.8962070  24.7660460  30.8063430  74.7943900
  24.7606030  30.3200620  73.3607300  17.4047700  30.8759020  75.6733690
  17.2290180  29.9594560  75.4601490  16.5503440  31.2346310  75.9131490
  24.6285450  28.6048050  72.4560070  23.9350610  28.6025340  71.7962350
  25.3708310  28.1807370  72.0254240  24.1935380  30.2310760  76.5308560
  24.6492330  29.4500140  76.8447180  24.5327900  30.9417580  77.0749740
  16.7156700  15.1332980  78.7259870  16.2724850  15.9142520  78.3944390
  17.2741690  15.4562870  79.4330810  19.8315520  14.7543680  73.6065700
  19.2069700  14.7503550  74.3319010  19.7445640  13.8874640  73.2101670
  18.7532600  15.6780310  80.5849470  19.0504930  16.5843140  80.5041490
  19.3018160  15.1899090  79.9709040  16.5070920  20.2566550  76.4541120
  16.2811840  20.0403720  77.3587740  15.7263450  20.6895010  76.1087090
  23.7368680  20.2629920  75.0531770  23.1377570  20.9865720  74.8695390
  24.2848290  20.2006700  74.2708220  22.3433550  18.8993460  77.0835050
  22.7363120  19.2165660  76.2703740  22.7050400  18.0205340  77.1979570
  11.3797720  15.4894260  79.3065250  11.0910770  16.0597120  80.0190230
  12.1243480  15.0098710  79.6696480  11.5667950  19.4314380  70.5167970
  11.4842620  20.3745140  70.6582960  11.2151010  19.2889290  69.6380320
  22.9288690  21.4899210  81.1785830  22.1969810  21.9986020  81.5275930
  22.5313030  20.6729190  80.8774610  19.3666080  18.1653410  79.5838320
  19.3702140  17.7243360  78.7342860  20.2617200  18.4870740  79.6910140
  15.2168460  18.0479900  78.5432530  14.8768510  18.5255130  79.2999580
  14.4545780  17.5945020  78.1833630  19.4286230  19.1665490  72.5745080
  19.5499050  19.1251970  73.5230900  19.0434740  20.0289640  72.4191810
  23.3914600  16.9432890  80.5908770  23.4087340  17.3941540  81.4350620
  23.1430180  16.0438530  80.8042210  18.4407730  21.4766630  71.9728380
  17.8724630  21.0284880  71.3464290  19.1496730  21.8359410  71.4393530
  12.5314540  16.9698880  77.4597200  12.2461460  16.6054550  78.2975820
  12.4693400  16.2379340  76.8460340  15.9855210  25.4724820  74.2454790
  15.2117470  24.9322440  74.0853510  16.7149840  24.9531430  73.9072550
  26.7443190  24.4690180  80.0381180  27.4642310  24.9645470  79.6477290
  26.5425010  23.7908070  79.3935050  22.2053130  15.8628140  74.1810570
  21.3917740  15.3641310  74.1055880  22.0115080  16.7026390  73.7646920
  24.9201520  20.2347790  72.4772730  25.8081140  20.5465020  72.3024070
  24.8906610  19.3620040  72.0853310  16.0292610  25.1405200  77.8833600
  16.5471280  24.3373460  77.8290490  15.5776630  25.0784340  78.7250430
  20.9162110  26.4071480  73.1560900  21.2577810  27.1513710  72.6604220
  20.0874820  26.7202600  73.5185730  27.1915790  21.5459630  71.9452590
  27.1079510  21.9773850  71.0949030  27.9109980  22.0057980  72.3779410
  28.2203040  28.4001890  74.6734720  27.5779200  27.7457510  74.9478440
  27.8333700  28.8056980  73.8975390  23.7989520  25.7287320  78.5206410
  24.1513340  25.1315450  77.8607780  22.9151850  25.4031550  78.6914660
  19.8852800  26.4885010  75.9276820  20.5723930  27.0354220  76.3084410
  19.0985220  27.0325740  75.9626430  12.0245200  22.1057830  71.4193900
  12.8940050  22.3882630  71.7029820  11.5335520  22.9193700  71.3042710
  19.1880010  23.4931040  75.5402180  19.6442790  24.3036290  75.7662370
  18.8368220  23.1754180  76.3720670  15.0891790  13.8368690  76.0124700
  14.9606420  13.8286590  76.9609620  14.2653810  14.1751780  75.6615710
  22.7644700  27.0069730  81.4871930  23.4066930  26.3062890  81.6004100
  23.2894050  27.7868170  81.3068820  26.6100420  27.2918350  71.2111070
  26.3838000  26.5748790  71.8035710  26.2196620  27.0430790  70.3732820
  12.3916450  31.3185210  71.9855530  12.7514090  31.9174550  71.3312800
  12.2508790  31.8645100  72.7590560  26.1916670  25.2090290  72.8725230
  25.9038370  25.6702980  73.6603110  26.9868840  24.7488060  73.1409450
  18.4085070  28.7016410  72.8029200  18.3995170  29.4346100  72.1873710
  17.4883430  28.4547990  72.8956160  14.0091710  23.9231300  73.5475960
  13.4019660  24.6630200  73.5571260  14.4841060  24.0130660  72.7214160
  26.9486530  17.0439060  74.0320410  26.3199690  17.1484730  73.3178640
  26.4538450  17.2635840  74.8214290  21.3944670  28.7644650  71.4654390
  21.4956650  28.5608640  70.5356370  20.4946410  28.5102930  71.6702170
  18.9170560  19.3225010  75.4478290  18.2086710  19.7911350  75.8891900
  19.2015040  18.6647020  76.0823480  22.9485990  16.0475670  76.8874080
  22.8253770  16.0661800  75.9383590  23.8970550  16.0954610  77.0072480
  20.0362780  31.2830970  76.1602060  20.2904280  31.2452360  75.2381430
  19.0875260  31.1564300  76.1530310  17.1205580  17.6310090  72.8229000
  17.9696110  18.0680240  72.7569190  16.7536850  17.9430350  73.6501060
  26.0415360  22.2022850  77.7360570  25.1005500  22.2173080  77.9108260
  26.3559430  21.4158810  78.1820870  16.0197000  23.8842450  71.2964530
  16.7860270  23.7723810  71.8589960  16.0971690  23.1880420  70.6441300
  14.7143760  21.3167520  71.9797420  14.7947350  20.3695030  72.0914820
  15.6063510  21.6474400  72.0858080  28.0440940  29.3731700  79.4114830
  28.1688360  30.1962870  79.8838640  28.9106500  29.1622430  79.0638980
  15.5158470  31.4662910  79.0831960  16.2520950  30.9178370  79.3540530
  15.8999390  32.3318920  78.9437950  12.4003950  27.5336480  74.9573470
  11.4743730  27.7757620  74.9478880  12.8660380  28.3610740  74.8358220
  18.6260780  30.6393220  70.9057530  19.4189390  30.9282050  70.4539320
  18.1065130  30.2085390  70.2270010  27.6790950  29.8663350  72.3294270
  27.3932460  29.4528490  71.5148450  27.4810500  30.7951060  72.2094790
  19.1438180  25.8596630  70.7699880  19.0388820  25.2448980  71.4961260
  18.9762400  25.3362520  69.9862890  22.3840910  24.9216660  71.3741870
  21.8351010  25.3685960  72.0184610  23.0060170  24.4165910  71.8979540
  18.0516030  23.8807580  73.2707170  18.4732450  23.7147450  74.1138560
  18.1766870  23.0707810  72.7762310  20.5643670  22.9045190  70.5184270
  21.0849330  22.1894210  70.1525420  21.2112070  23.5431060  70.8184780
  16.9474930  19.9540810  70.2165330  16.7463990  19.0908170  70.5778670
  16.7766980  19.8674170  69.2786930  24.4263240  14.7649040  72.7452210
  24.7065530  13.9216940  73.1011630  23.6528970  14.9972150  73.2590960
  15.7457730  17.0541430  70.2043210  16.0483630  17.0608860  69.2962360
  16.4852320  16.7039290  70.7010870  18.9642660  15.9976050  71.1899410
  18.6164660  15.3200040  70.6101860  19.1655430  15.5365560  72.0042800
  21.1291700  30.9856800  72.8086010  22.0242490  31.3241770  72.8304770
  21.1609330  30.2636210  72.1810290  14.7687860  26.3583850  71.0373010
  15.2062730  26.9013520  71.6930590  15.2535590  25.5330800  71.0469350
  11.9833660  29.1472880  78.4893270  12.3136670  28.2793940  78.2571910
  12.4124660  29.3531400  79.3198230  16.5795580  27.4781890  76.1495240
  16.2791120  27.3546860  77.0499150  16.4733070  26.6190480  75.7410970
  29.3487500  27.2578290  70.8521920  28.5180460  27.3254940  71.3229150
  29.5259330  28.1482410  70.5488780  28.8043960  24.0025770  73.3556120
  29.5662870  24.5722420  73.4615810  28.8198330  23.4352970  74.1264430
  12.3048300  22.5263700  77.5863780  11.6497140  22.2575340  76.9423480
  13.1426250  22.4168180  77.1365760  29.8103930  24.8575870  78.1998050
  30.1812760  24.0743190  77.7934020  30.4505860  25.5464970  78.0215350
  28.8563130  24.2960140  70.5128640  29.1311970  25.2039020  70.3847860
  28.6673870  24.2322670  71.4490630  25.2538740  17.3204990  71.8082270
  25.6723620  17.1335970  70.9678930  24.9474800  16.4684040  72.1185200
  28.7528470  22.2329130  75.5058070  28.3772070  21.4657060  75.0739360
  28.0231590  22.6151830  75.9933000  11.5186380  19.7362630  73.5289110
  10.6150460  19.9992830  73.3540770  12.0027000  20.0073800  72.7489070
  28.0279430  20.4586620  78.8065310  28.5516910  19.9649270  78.1755480
  28.6138850  20.5936980  79.5512880  14.0613590  18.7928170  71.4383490
  14.7705290  18.3711390  70.9530770  13.3453530  18.8603400  70.8066840
  13.7087750  14.8467500  70.4786140  14.4315880  15.3876440  70.7967360
  13.9812270  14.5730920  69.6027680  27.5179400  19.7159970  74.7457720
  28.0138520  19.4830840  75.5306600  27.3195470  18.8771810  74.3295360
  13.3979940  14.0973690  80.3808760  14.0456130  13.5471070  79.9403920
  13.8181780  14.3516840  81.2024570  28.9466560  18.3520920  77.2795400
  28.8365840  18.1976960  78.2177670  29.7074150  17.8241860  77.0370810
  29.8356830  16.1828840  70.5201540  30.7606140  16.0510020  70.3119830
  29.8132620  16.2621660  71.4737990  29.9095320  16.9539500  73.1458250
  29.1146820  16.8884620  73.6751160  30.1138600  17.8890140  73.1343600
  26.8513740  30.9931050  77.1396640  27.4472810  30.6715620  76.4631060
  27.1091890  30.5202870  77.9309910  27.4025950  31.6426350  80.9694370
  26.9428920  32.3942160  80.5952390  26.7738410  30.9232820  80.9109170
  17.8321670  29.9514590  80.1442500  18.3486690  29.3401950  79.6190760
  18.4819050  30.4543370  80.6353510  20.5717170  30.8423080  80.9711480
  20.8594980  30.5877380  80.0944490  21.0840390  30.2900440  81.5617050
  21.7894180  14.5813280  81.5507990  21.0065970  15.0558780  81.8304750
  21.4957110  13.6768110  81.4421170  26.3415250  15.2836380  79.5957080
  26.7823340  15.2281480  78.7478680  26.0722840  16.1994390  79.6667260
  28.2053820  14.9151620  77.6065900  28.1442220  13.9712840  77.4596920
  28.9845850  15.0231710  78.1519360  12.5106570  31.0543980  76.5689850
  12.3428610  30.4214660  77.2671740  11.6441080  31.2603380  76.2184040
  13.1334590  14.8860760  74.0721710  13.8913950  14.9989640  73.4985740
  12.6711760  15.7229960  74.0265140  19.6748400  17.0000030  77.0624020
  18.8622910  16.6256920  76.7219900  20.1790040  16.2445110  77.3645210
  24.1773380  13.6642480  78.3007090  24.7802750  14.2362690  78.7755610
  23.4366370  14.2281920  78.0780990  27.3207980  14.0664040  73.5747370
  27.5158610  14.9647490  73.8414800  26.5337850  13.8351120  74.0680320
  14.1169270  29.7477210  74.0139990  13.5916890  30.1285240  73.3101950
  14.0413850  30.3727980  74.7349700  15.5059740  15.4124810  72.6123680
  16.0352500  14.6254610  72.4831630  16.1388060  16.0916000  72.8459210
  17.6997580  15.1499950  75.6669070  17.0700320  14.4487260  75.8339200
  17.1602720  15.9104080  75.4502230  28.8734590  31.3064750  75.3353930
  29.0486780  30.6202490  74.6914850  28.1756160  31.8311800  74.9430600
  16.7162240  31.6959590  72.8889240  17.4481060  31.4118870  72.3413130
  16.9755910  31.4572870  73.7788620  15.8777030  27.8124320  72.8935570
  15.2485910  28.2809420  73.4421400  15.9924860  26.9673540  73.3281760
  23.3326750  21.8629980  59.0436770  23.2520800  20.9484590  58.7728480
  22.9191170  22.3597050  58.3376480  21.4644790  23.6409000  60.9246040
  20.6886890  23.1609440  61.2144610  22.1157720  22.9614650  60.7502200
  15.4810620  23.9528810  61.8021800  14.6495500  23.6977520  62.2018310
  16.0891600  24.0239580  62.5379720  25.4852220  28.0469190  59.7045170
  25.0233750  27.2756430  60.0332340  26.2977770  28.0735260  60.2097620
  15.4611880  27.9868900  61.9979820  15.7639920  27.0966640  61.8190040
  16.2055470  28.5439120  61.7702070  13.8902570  18.9130700  55.5864190
  13.0019270  19.2546670  55.4844070  14.1743760  18.7131020  54.6945020
  11.8535580  21.5136350  61.4703890  12.4251690  20.7458550  61.4707530
  11.8537120  21.8125110  60.5610500  21.7115530  30.3327200  59.3249160
  21.0926970  30.7884700  58.7543600  22.5667310  30.4878660  58.9238860
  20.9053780  26.3166190  60.9316200  20.8362060  25.3756130  60.7705330
  21.6673640  26.4067600  61.5038770  13.0960450  16.9220710  63.2572820
  12.9163290  16.0246460  63.5375580  12.6940530  17.4692580  63.9319770
  21.9358950  19.1236570  61.1585130  22.3123770  18.2508450  61.0458800
  21.8378460  19.4595270  60.2675570  16.0663960  17.4962200  56.6202570
  16.1730710  18.3965930  56.9271330  15.1556320  17.4480170  56.3297220
  25.7183070  16.6187010  58.0913470  26.5392690  16.1283580  58.1338950
  25.7517150  17.2084670  58.8445310  13.7147120  19.4181210  61.8655160
  14.3957230  19.6819580  62.4842560  13.3995170  18.5782080  62.1993170
  17.9071690  20.4648570  60.9527750  18.4149910  20.9629540  61.5932770
  18.4384930  19.6883770  60.7767110  30.0082620  18.6353760  64.6557100
  29.3034790  19.0235470  64.1372210  30.2740540  19.3304050  65.2578030
  16.1907790  15.1047130  65.2191170  16.1926230  15.6219520  64.4137070
  15.3612100  14.6277310  65.1961100  22.5778880  25.2166440  56.7181070
  21.9596150  25.6815890  56.1543790  23.0902130  25.9093920  57.1350580
  17.4410640  24.7442310  63.3964670  17.1080020  25.3711230  64.0385740
  17.6177320  25.2704190  62.6166340  25.9544550  18.5587390  60.8641010
  25.2500120  18.8472280  61.4444120  26.3156710  19.3687500  60.5040570
  15.8723120  16.8157090  63.2261620  16.2139930  17.6599140  62.9315490
  14.9338930  16.9640830  63.3426960  16.6529740  26.7123110  65.2113850
  17.2703740  27.3874190  64.9298300  15.7922860  27.1211090  65.1201350
  11.9462080  25.9022970  54.0920700  11.5690060  26.3910070  53.3605600
  12.2035150  26.5748250  54.7227230  27.5707330  28.1762520  63.1268490
  26.8870850  28.8461630  63.1185160  28.1101620  28.3743170  62.3613350
  29.0231470  18.0042180  61.2550220  28.0756380  18.0381160  61.3865650
  29.3481460  18.8181130  61.6399580  19.5551010  14.3039360  59.5506210
  19.8625990  13.7486250  58.8341710  18.6251710  14.4383820  59.3679200
  25.1066070  30.0206650  61.8413670  25.1193230  29.6168940  60.9735930
  24.5541290  30.7953940  61.7375100  26.4011490  26.7422870  56.9303840
  26.2907820  25.7997200  57.0553260  26.3979740  27.1038510  57.8166600
  24.5051510  24.9236490  63.1696280  24.9220300  24.7096600  62.3349740
  25.2291330  25.1809280  63.7404900  21.9431770  22.3688190  56.2866330
  21.0161050  22.3025570  56.5154800  22.0956590  23.3068320  56.1721570
  21.9300850  18.6405190  53.2833490  20.9904520  18.8019150  53.3685950
  22.2484110  19.3590870  52.7369480  28.4513610  23.3223710  63.2612520
  27.6232240  23.3916800  62.7862650  29.0464090  23.9078020  62.7928350
  25.9729060  23.9308490  56.7901580  25.3541480  23.5928040  56.1427880
  25.9553510  23.2868250  57.4980770  25.4155620  20.1093030  64.2067390
  25.0026800  20.9346740  64.4607380  24.6831570  19.5238070  64.0143750
  17.5488410  22.8952930  59.0686060  17.1445410  22.1830180  58.5731960
  17.6351530  22.5506170  59.9574100  18.0170110  26.5820490  61.2325270
  17.7198400  25.9765960  60.5533050  18.9669930  26.6197800  61.1214630
  16.2617030  19.6696140  62.8485100  16.8131620  19.7791480  62.0738350
  16.7760540  20.0433740  63.5640330  26.1055720  30.1552360  64.8948370
  25.6286280  30.9624550  64.7020980  25.4217510  29.5030690  65.0474580
  17.1088540  26.3202180  67.8833070  16.2117070  26.5442150  68.1306470
  17.1341410  26.4437120  66.9344470  24.1493760  23.1695300  53.7974330
  24.5887040  22.3317730  53.6512150  24.8622180  23.8024700  53.8838470
  15.9359760  23.1915500  66.4590440  15.7967530  24.0638300  66.8277840
  15.0541120  22.8488310  66.3138380  22.2589140  28.1091370  57.7655570
  22.6985050  28.8515700  57.3510960  22.1976030  28.3517940  58.6894530
  17.7340110  29.1337200  68.6675590  17.7055540  29.5380150  67.8004020
  17.5705080  28.2047560  68.5047190  27.7310900  14.4238110  52.1115370
  27.4183560  14.5164940  53.0114440  28.4923370  15.0019140  52.0612800
  14.2493040  21.7897910  56.5692710  14.1290640  22.5160000  55.9573980
  13.9393930  21.0200820  56.0920620  29.6854930  29.9164300  69.9639760
  30.1614650  30.3947190  70.6428840  30.3062090  29.8481790  69.2385260
  11.8878410  24.9613050  62.3761350  11.9658830  25.0961820  61.4317070
  12.5020090  24.2528940  62.5689470  13.1326040  26.6613240  58.7867530
  12.7254120  26.8027830  57.9321130  14.0239050  26.3773400  58.5838740
  29.0888180  27.1077150  67.1239770  29.2151240  26.8689030  66.2056950
  29.1309560  26.2761690  67.5961850  22.9504920  30.8105150  65.6934580
  23.4649590  30.7213160  66.4957010  22.1074000  31.1564850  65.9862490
  24.9259320  31.0960490  55.1218580  24.7660460  30.8063430  56.0200410
  24.7606030  30.3200620  54.5863810  17.4047700  30.8759020  56.8990200
  17.2290180  29.9594560  56.6858000  16.5503440  31.2346310  57.1388000
  24.6285450  28.6048050  53.6816580  23.9350610  28.6025340  53.0218860
  25.3708310  28.1807370  53.2510750  24.1935380  30.2310760  57.7565070
  24.6492330  29.4500140  58.0703690  24.5327900  30.9417580  58.3006250
  28.9412190  19.1609610  68.0889510  28.3256460  19.6689280  67.5604970
  28.6208610  18.2607940  68.0315450  11.9437930  26.0027220  64.9155810
  12.1068970  25.5332580  64.0975180  12.4090380  25.4950780  65.5804650
  16.7156700  15.1332980  59.9516380  16.2724850  15.9142520  59.6200900
  17.2741690  15.4562870  60.6587320  21.0026510  18.0001500  65.5551700
  20.5405880  18.2084520  66.3671640  20.6004620  17.1860850  65.2522370
  26.0031020  19.2210450  66.6848360  25.1524610  18.9216200  67.0057430
  25.8432810  19.4652460  65.7732180  23.0980730  20.7212200  68.7847150
  23.4234140  19.8875950  68.4449380  23.8861060  21.2440720  68.9325480
  19.8315520  14.7543680  54.8322210  19.2069700  14.7503550  55.5575520
  19.7445640  13.8874640  54.4358180  18.7532600  15.6780310  61.8105980
  19.0504930  16.5843140  61.7298000  19.3018160  15.1899090  61.1965550
  16.5070920  20.2566550  57.6797630  16.2811840  20.0403720  58.5844250
  15.7263450  20.6895010  57.3343600  23.7368680  20.2629920  56.2788280
  23.1377570  20.9865720  56.0951900  24.2848290  20.2006700  55.4964730
  18.9470130  21.1552130  68.3457900  18.8513730  20.2146860  68.1958300
  19.7902110  21.3767200  67.9505970  22.3433550  18.8993460  58.3091560
  22.7363120  19.2165660  57.4960250  22.7050400  18.0205340  58.4236080
  14.0780670  17.5665800  66.4991680  13.6844060  18.4141010  66.7064460
  13.3899070  16.9292170  66.6900320  20.6525720  17.6500770  69.5688420
  19.9624040  17.4572970  70.2034510  21.3958020  17.9335410  70.1012720
  11.3797720  15.4894260  60.5321760  11.0910770  16.0597120  61.2446740
  12.1243480  15.0098710  60.8952990  11.5667950  19.4314380  51.7424480
  11.4842620  20.3745140  51.8839470  11.2151010  19.2889290  50.8636830
  22.9288690  21.4899210  62.4042340  22.1969810  21.9986020  62.7532440
  22.5313030  20.6729190  62.1031120  19.3666080  18.1653410  60.8094830
  19.3702140  17.7243360  59.9599370  20.2617200  18.4870740  60.9166650
  15.2168460  18.0479900  59.7689040  14.8768510  18.5255130  60.5256090
  14.4545780  17.5945020  59.4090140  19.4286230  19.1665490  53.8001590
  19.5499050  19.1251970  54.7487410  19.0434740  20.0289640  53.6448320
  23.3914600  16.9432890  61.8165280  23.4087340  17.3941540  62.6607130
  23.1430180  16.0438530  62.0298720  18.4407730  21.4766630  53.1984890
  17.8724630  21.0284880  52.5720800  19.1496730  21.8359410  52.6650040
  26.8185350  14.3565070  67.6551660  27.1431120  13.6254730  68.1809640
  26.8541860  14.0378710  66.7532650  13.5176910  25.3778650  67.0751620
  13.1331700  24.7372320  67.6734580  13.8289100  26.0814770  67.6446350
  19.6674050  22.2255190  62.5560240  20.0344180  21.7513760  63.3021580
  19.4779110  23.0996760  62.8968580  12.5314540  16.9698880  58.6853710
  12.2461460  16.6054550  59.5232330  12.4693400  16.2379340  58.0716850
  17.4573420  21.2663830  64.8744450  17.1530490  22.1455810  65.0994810
  18.4119880  21.3263620  64.9101890  15.9855210  25.4724820  55.4711300
  15.2117470  24.9322440  55.3110020  16.7149840  24.9531430  55.1329060
  26.7443190  24.4690180  61.2637690  27.4642310  24.9645470  60.8733800
  26.5425010  23.7908070  60.6191560  22.2053130  15.8628140  55.4067080
  21.3917740  15.3641310  55.3312390  22.0115080  16.7026390  54.9903430
  22.1261990  24.5399240  67.1506690  22.0599300  23.6194910  66.8964280
  21.4967130  24.6374680  67.8651330  24.9201520  20.2347790  53.7029240
  25.8081140  20.5465020  53.5280580  24.8906610  19.3620040  53.3109820
  16.0292610  25.1405200  59.1090110  16.5471280  24.3373460  59.0547000
  15.5776630  25.0784340  59.9506940  20.9162110  26.4071480  54.3817410
  21.2577810  27.1513710  53.8860730  20.0874820  26.7202600  54.7442240
  13.5137150  22.1066570  66.0215810  13.1552090  22.7720420  66.6089150
  13.2191710  21.2750120  66.3928430  16.7150270  22.5650810  68.9055360
  16.4150410  22.7107990  68.0083180  17.4861510  22.0056100  68.8128750
  22.0578720  27.3619810  66.9010490  22.0723260  26.4300770  66.6829400
  21.3503820  27.4479570  67.5400260  27.1915790  21.5459630  53.1709100
  27.1079510  21.9773850  52.3205540  27.9109980  22.0057980  53.6035920
  28.2689930  24.0027150  66.2479070  27.5438120  24.5955930  66.0508460
  28.7965390  23.9950690  65.4492440  28.2203040  28.4001890  55.8991230
  27.5779200  27.7457510  56.1734950  27.8333700  28.8056980  55.1231900
  23.7989520  25.7287320  59.7462920  24.1513340  25.1315450  59.0864290
  22.9151850  25.4031550  59.9171170  19.8852800  26.4885010  57.1533330
  20.5723930  27.0354220  57.5340920  19.0985220  27.0325740  57.1882940
  12.0245200  22.1057830  52.6450410  12.8940050  22.3882630  52.9286330
  11.5335520  22.9193700  52.5299220  19.1880010  23.4931040  56.7658690
  19.6442790  24.3036290  56.9918880  18.8368220  23.1754180  57.5977180
  21.4912620  29.0037380  63.9950990  22.1354840  29.2096760  64.6724410
  21.8542060  28.2425780  63.5421840  15.0891790  13.8368690  57.2381210
  14.9606420  13.8286590  58.1866130  14.2653810  14.1751780  56.8872220
  22.7644700  27.0069730  62.7128440  23.4066930  26.3062890  62.8260610
  23.2894050  27.7868170  62.5325330  24.5382320  27.8064630  65.9164500
  24.8738560  28.3931320  66.5942420  23.6182660  27.6757340  66.1462290
  12.3916450  31.3185210  53.2112040  12.7514090  31.9174550  52.5569310
  12.2508790  31.8645100  53.9847070  12.0885720  15.5959810  66.6987910
  11.3744240  15.7956730  67.3040520  12.5080760  14.8199380  67.0702710
  26.1916670  25.2090290  54.0981740  25.9038370  25.6702980  54.8859620
  26.9868840  24.7488060  54.3665960  12.3758310  29.5840070  67.6854440
  12.4849430  28.6434810  67.5449830  11.7238870  29.8494820  67.0368170
  20.3670900  27.8555960  69.0852560  20.0467770  27.1365200  69.6298250
  19.6929260  28.5311030  69.1588620  18.4085070  28.7016410  54.0285710
  18.3995170  29.4346100  53.4130220  17.4883430  28.4547990  54.1212670
  14.0091710  23.9231300  54.7732470  13.4019660  24.6630200  54.7827770
  14.4841060  24.0130660  53.9470670  23.5824500  18.0882120  64.4489360
  23.9505320  17.2677330  64.7768930  22.7222700  18.1484010  64.8645010
  26.9486530  17.0439060  55.2576920  26.3199690  17.1484730  54.5435150
  26.4538450  17.2635840  56.0470800  21.3944670  28.7644650  52.6910900
  21.4956650  28.5608640  51.7612880  20.4946410  28.5102930  52.8958680
  18.9170560  19.3225010  56.6734800  18.2086710  19.7911350  57.1148410
  19.2015040  18.6647020  57.3079990  20.5426490  20.7421710  64.6727330
  21.0411740  21.2167530  65.3379180  20.6849440  19.8185230  64.8797360
  22.9485990  16.0475670  58.1130590  22.8253770  16.0661800  57.1640100
  23.8970550  16.0954610  58.2328990  20.0362780  31.2830970  57.3858570
  20.2904280  31.2452360  56.4637940  19.0875260  31.1564300  57.3786820
  17.1205580  17.6310090  54.0485510  17.9696110  18.0680240  53.9825700
  16.7536850  17.9430350  54.8757570  27.7493350  16.9589670  65.5155720
  27.2466950  17.6995070  65.8549530  28.5650010  17.3473670  65.1992510
  26.0415360  22.2022850  58.9617080  25.1005500  22.2173080  59.1364770
  26.3559430  21.4158810  59.4077380  16.0197000  23.8842450  52.5221040
  16.7860270  23.7723810  53.0846470  16.0971690  23.1880420  51.8697810
  14.7143760  21.3167520  53.2053930  14.7947350  20.3695030  53.3171330
  15.6063510  21.6474400  53.3114590  28.0440940  29.3731700  60.6371340
  28.1688360  30.1962870  61.1095150  28.9106500  29.1622430  60.2895490
  15.5158470  31.4662910  60.3088470  16.2520950  30.9178370  60.5797040
  15.8999390  32.3318920  60.1694460  12.4003950  27.5336480  56.1829980
  11.4743730  27.7757620  56.1735390  12.8660380  28.3610740  56.0614730
  14.5216750  30.6508980  69.4974050  15.3229480  30.9721030  69.9109450
  14.0068570  30.2904560  70.2193960  18.6260780  30.6393220  52.1314040
  19.4189390  30.9282050  51.6795830  18.1065130  30.2085390  51.4526520
  23.3581380  26.7588850  69.4449460  22.7519540  26.7820450  68.7045210
  23.0535490  26.0271890  69.9816710  24.7881750  30.4869140  68.0558870
  25.7403500  30.4027160  68.0059110  24.6409970  31.1510850  68.7292660
  27.6790950  29.8663350  53.5550780  27.3932460  29.4528490  52.7404960
  27.4810500  30.7951060  53.4351300  12.2414560  23.1382440  68.4410100
  12.7453580  22.5589720  69.0126330  11.5021980  23.4222670  68.9786470
  19.1438180  25.8596630  51.9956390  19.0388820  25.2448980  52.7217770
  18.9762400  25.3362520  51.2119400  19.2952500  24.5453430  67.9745620
  18.5298170  25.1138430  67.8900290  19.4768460  24.2529640  67.0813850
  22.3840910  24.9216660  52.5998380  21.8351010  25.3685960  53.2441120
  23.0060170  24.4165910  53.1236050  26.4375850  26.2758760  68.5320640
  27.1785320  26.6134520  68.0288100  25.6748530  26.4450820  67.9790410
  14.2737640  21.2812030  69.3360170  14.3142980  20.9825900  70.2445400
  15.1283140  21.6819640  69.1767690  18.0516030  23.8807580  54.4963680
  18.4732450  23.7147450  55.3395070  18.1766870  23.0707810  54.0018820
  16.2143450  19.8604130  67.3034660  15.6839910  19.3695080  66.6758000
  16.8831520  20.2888330  66.7692590  20.5643670  22.9045190  51.7440780
  21.0849330  22.1894210  51.3781930  21.2112070  23.5431060  52.0441290
  25.1121510  24.3273590  67.0675850  25.5262530  24.4818670  67.9166270
  24.1772510  24.4528810  67.2301630  25.5843680  21.6669750  69.0715000
  26.1664450  20.9122070  68.9835480  25.7605450  22.1977190  68.2946480
  16.7015750  16.8266500  67.3831950  16.6072620  16.2087250  66.6582820
  16.1213140  17.5532790  67.1561860  19.4677190  15.3839740  64.4159340
  19.0194490  15.4064000  63.5704890  18.8342390  14.9858760  65.0129640
  19.8736740  24.2794070  65.0371780  20.2924850  25.1226800  64.8648020
  18.9545370  24.4166110  64.8078560  22.2100640  22.0110250  66.4209620
  22.3296850  21.4151390  67.1604460  23.0694640  22.0479940  66.0010920
  24.5488540  22.5647440  64.9972130  24.0223760  23.0890060  64.3937270
  24.8919880  23.1974830  65.6281860  16.9474930  19.9540810  51.4421840
  16.7463990  19.0908170  51.8035180  16.7766980  19.8674170  50.5043440
  17.7244160  30.5847080  66.1529510  17.1865250  31.3093140  65.8338210
  17.9778120  30.1077420  65.3626850  18.9769410  18.5531600  67.6785440
  19.5669100  18.2447450  68.3663260  18.1589650  18.0811350  67.8345340
  23.7962840  18.1697410  67.9118460  23.1078360  17.5078950  67.8468450
  24.5168860  17.7235680  68.3566920  24.4263240  14.7649040  53.9708720
  24.7065530  13.9216940  54.3268140  23.6528970  14.9972150  54.4847470
  15.7457730  17.0541430  51.4299720  16.0483630  17.0608860  50.5218870
  16.4852320  16.7039290  51.9267380  20.5806370  31.8198290  66.4116160
  20.5065070  32.7233430  66.7188530  19.6785210  31.5010190  66.3838230
  18.9642660  15.9976050  52.4155920  18.6164660  15.3200040  51.8358370
  19.1655430  15.5365560  53.2299310  21.1291700  30.9856800  54.0342520
  22.0242490  31.3241770  54.0561280  21.1609330  30.2636210  53.4066800
  14.7687860  26.3583850  52.2629520  15.2062730  26.9013520  52.9187100
  15.2535590  25.5330800  52.2725860  11.9833660  29.1472880  59.7149780
  12.3136670  28.2793940  59.4828420  12.4124660  29.3531400  60.5454740
  16.5795580  27.4781890  57.3751750  16.2791120  27.3546860  58.2755660
  16.4733070  26.6190480  56.9667480  12.4723870  30.0143470  62.4531410
  12.0354860  30.1944270  63.2855560  13.0401550  30.7718090  62.3113130
  28.1086050  29.5160470  66.7408720  27.5088040  29.5753030  65.9972640
  28.2379950  28.5765450  66.8705570  29.3487500  27.2578290  52.0778430
  28.5180460  27.3254940  52.5485660  29.5259330  28.1482410  51.7745290
  28.8043960  24.0025770  54.5812630  29.5662870  24.5722420  54.6872320
  28.8198330  23.4352970  55.3520940  12.3048300  22.5263700  58.8120290
  11.6497140  22.2575340  58.1679990  13.1426250  22.4168180  58.3622270
  29.8103930  24.8575870  59.4254560  30.1812760  24.0743190  59.0190530
  30.4505860  25.5464970  59.2471860  26.7937690  26.2412450  64.8384880
  25.9797530  26.6709610  65.1010670  27.2011890  26.8530860  64.2253930
  28.8563130  24.2960140  51.7385150  29.1311970  25.2039020  51.6104370
  28.6673870  24.2322670  52.6747140  25.2538740  17.3204990  53.0338780
  25.6723620  17.1335970  52.1935440  24.9474800  16.4684040  53.3441710
  28.7528470  22.2329130  56.7314580  28.3772070  21.4657060  56.2995870
  28.0231590  22.6151830  57.2189510  13.3424230  22.9116270  63.3523630
  13.7097270  22.8243670  64.2319650  12.7735050  22.1482820  63.2530490
  28.1428090  21.3800650  66.3654100  27.9114180  21.1513400  65.4652050
  28.4032640  22.3000200  66.3198990  12.8940230  19.8225360  67.2582050
  11.9996280  19.7892120  67.5975760  13.4337780  20.0212150  68.0233300
  26.5816160  16.6057080  69.1433800  27.4586340  16.6140480  69.5267800
  26.5937000  15.8687920  68.5326150  11.5186380  19.7362630  54.7545620
  10.6150460  19.9992830  54.5797280  12.0027000  20.0073800  53.9745580
  28.0279430  20.4586620  60.0321820  28.5516910  19.9649270  59.4011990
  28.6138850  20.5936980  60.7769390  28.2069150  20.5426490  63.5541370
  27.2571860  20.5090030  63.6686360  28.3882160  21.4526600  63.3191140
  14.0613590  18.7928170  52.6640000  14.7705290  18.3711390  52.1787280
  13.3453530  18.8603400  52.0323350  13.7087750  14.8467500  51.7042650
  14.4315880  15.3876440  52.0223870  13.9812270  14.5730920  50.8284190
  27.5179400  19.7159970  55.9714230  28.0138520  19.4830840  56.7563110
  27.3195470  18.8771810  55.5551870  13.3979940  14.0973690  61.6065270
  14.0456130  13.5471070  61.1660430  13.8181780  14.3516840  62.4281080
  28.9466560  18.3520920  58.5051910  28.8365840  18.1976960  59.4434180
  29.7074150  17.8241860  58.2627320  27.2932280  14.2915050  64.9634910
  27.9304500  14.9049190  65.3294100  27.4407170  14.3275710  64.0184140
  29.8356830  16.1828840  51.7458050  30.7606140  16.0510020  51.5376340
  29.8132620  16.2621660  52.6994500  29.9095320  16.9539500  54.3714760
  29.1146820  16.8884620  54.9007670  30.1138600  17.8890140  54.3600110
  26.8513740  30.9931050  58.3653150  27.4472810  30.6715620  57.6887570
  27.1091890  30.5202870  59.1566420  13.1511940  14.2529360  64.3490590
  12.8026760  14.7093180  65.1148770  12.8199640  13.3586490  64.4313020
  14.7576310  27.4248960  68.5143780  14.7145940  27.0541870  69.3958240
  14.8887320  28.3626530  68.6545600  18.4582340  28.9808550  64.1153500
  18.2173700  29.2483110  63.2284020  19.3984980  29.1514280  64.1704360
  20.6636760  15.4441240  67.8710010  20.6025650  16.0363070  68.6205420
  21.6037140  15.3367200  67.7260270  23.3011320  15.1011300  67.5102300
  23.9151730  15.4190590  66.8483380  23.8460880  14.6159890  68.1298160
  29.7186500  31.0002930  64.9164140  29.2244780  31.3971800  64.1991270
  29.1099790  30.3752140  65.3101420  13.8232580  13.7805560  67.6241360
  14.3715570  13.5993610  66.8607470  13.8887890  12.9899670  68.1597670
  14.5964340  30.3711210  65.6341560  14.0024660  30.2395910  66.3731600
  14.5888180  29.5349350  65.1683660  24.0419360  13.6643440  63.8371590
  23.1679200  13.9978550  63.6344520  23.9330110  13.1916620  64.6623460
  24.9491340  15.8714310  65.2213310  24.6204700  15.0566070  64.8415040
  25.8973640  15.8284120  65.0979000  27.4025950  31.6426350  62.1950880
  26.9428920  32.3942160  61.8208900  26.7738410  30.9232820  62.1365680
  14.2276570  27.7369590  64.5849600  13.5010630  27.1174880  64.5175550
  14.2885720  28.1310200  63.7147680  17.8321670  29.9514590  61.3699010
  18.3486690  29.3401950  60.8447270  18.4819050  30.4543370  61.8610020
  20.5717170  30.8423080  62.1967990  20.8594980  30.5877380  61.3201000
  21.0840390  30.2900440  62.7873560  21.7894180  14.5813280  62.7764500
  21.0065970  15.0558780  63.0561260  21.4957110  13.6768110  62.6677680
  26.3415250  15.2836380  60.8213590  26.7823340  15.2281480  59.9735190
  26.0722840  16.1994390  60.8923770  28.2053820  14.9151620  58.8322410
  28.1442220  13.9712840  58.6853430  28.9845850  15.0231710  59.3775870
  12.5106570  31.0543980  57.7946360  12.3428610  30.4214660  58.4928250
  11.6441080  31.2603380  57.4440550  13.1334590  14.8860760  55.2978220
  13.8913950  14.9989640  54.7242250  12.6711760  15.7229960  55.2521650
  19.6748400  17.0000030  58.2880530  18.8622910  16.6256920  57.9476410
  20.1790040  16.2445110  58.5901720  24.1773380  13.6642480  59.5263600
  24.7802750  14.2362690  60.0012120  23.4366370  14.2281920  59.3037500
  27.3207980  14.0664040  54.8003880  27.5158610  14.9647490  55.0671310
  26.5337850  13.8351120  55.2936830  14.1169270  29.7477210  55.2396500
  13.5916890  30.1285240  54.5358460  14.0413850  30.3727980  55.9606210
  15.5059740  15.4124810  53.8380190  16.0352500  14.6254610  53.7088140
  16.1388060  16.0916000  54.0715720  17.6997580  15.1499950  56.8925580
  17.0700320  14.4487260  57.0595710  17.1602720  15.9104080  56.6758740
  20.6389530  31.7639180  69.5636190  21.5656840  31.5283450  69.6072150
  20.6239960  32.5911180  69.0822220  17.8253140  14.4283930  69.3278070
  17.5437410  14.9317530  68.5638890  18.2072840  13.6305680  68.9620200
  16.7162240  31.6959590  54.1145750  17.4481060  31.4118870  53.5669640
  16.9755910  31.4572870  55.0045130  15.8777030  27.8124320  54.1192080
  15.2485910  28.2809420  54.6677910  15.9924860  26.9673540  54.5538270
  24.4268600  13.8437510  69.9058540  24.3134050  14.1632120  70.8010060
  25.2438340  14.2450020  69.6095820  27.2067090  30.9909040  69.3877230
  27.9992410  30.4958270  69.1803190  27.5000240  31.6699180  69.9952840
  23.3326750  21.8629980  40.2693280  23.2520800  20.9484590  39.9984990
  22.9191170  22.3597050  39.5632990  15.4810620  23.9528810  43.0278310
  14.6495500  23.6977520  43.4274820  16.0891600  24.0239580  43.7636230
  13.8902570  18.9130700  36.8120700  13.0019270  19.2546670  36.7100580
  14.1743760  18.7131020  35.9201530  11.8535580  21.5136350  42.6960400
  12.4251690  20.7458550  42.6964040  11.8537120  21.8125110  41.7867010
  13.0960450  16.9220710  44.4829330  12.9163290  16.0246460  44.7632090
  12.6940530  17.4692580  45.1576280  21.9358950  19.1236570  42.3841640
  22.3123770  18.2508450  42.2715310  21.8378460  19.4595270  41.4932080
  16.0663960  17.4962200  37.8459080  16.1730710  18.3965930  38.1527840
  15.1556320  17.4480170  37.5553730  25.7183070  16.6187010  39.3169980
  26.5392690  16.1283580  39.3595460  25.7517150  17.2084670  40.0701820
  13.7147120  19.4181210  43.0911670  14.3957230  19.6819580  43.7099070
  13.3995170  18.5782080  43.4249680  17.9071690  20.4648570  42.1784260
  18.4149910  20.9629540  42.8189280  18.4384930  19.6883770  42.0023620
  30.0082620  18.6353760  45.8813610  29.3034790  19.0235470  45.3628720
  30.2740540  19.3304050  46.4834540  16.1907790  15.1047130  46.4447680
  16.1926230  15.6219520  45.6393580  15.3612100  14.6277310  46.4217610
  17.4410640  24.7442310  44.6221180  17.1080020  25.3711230  45.2642250
  17.6177320  25.2704190  43.8422850  25.9544550  18.5587390  42.0897520
  25.2500120  18.8472280  42.6700630  26.3156710  19.3687500  41.7297080
  15.8723120  16.8157090  44.4518130  16.2139930  17.6599140  44.1572000
  14.9338930  16.9640830  44.5683470  11.9462080  25.9022970  35.3177210
  11.5690060  26.3910070  34.5862110  12.2035150  26.5748250  35.9483740
  29.0231470  18.0042180  42.4806730  28.0756380  18.0381160  42.6122160
  29.3481460  18.8181130  42.8656090  19.5551010  14.3039360  40.7762720
  19.8625990  13.7486250  40.0598220  18.6251710  14.4383820  40.5935710
  21.9431770  22.3688190  37.5122840  21.0161050  22.3025570  37.7411310
  22.0956590  23.3068320  37.3978080  25.9729060  23.9308490  38.0158090
  25.3541480  23.5928040  37.3684390  25.9553510  23.2868250  38.7237280
  25.4155620  20.1093030  45.4323900  25.0026800  20.9346740  45.6863890
  24.6831570  19.5238070  45.2400260  17.5488410  22.8952930  40.2942570
  17.1445410  22.1830180  39.7988470  17.6351530  22.5506170  41.1830610
  16.2617030  19.6696140  44.0741610  16.8131620  19.7791480  43.2994860
  16.7760540  20.0433740  44.7896840  17.1088540  26.3202180  49.1089580
  16.2117070  26.5442150  49.3562980  17.1341410  26.4437120  48.1600980
  15.9359760  23.1915500  47.6846950  15.7967530  24.0638300  48.0534350
  15.0541120  22.8488310  47.5394890  17.7340110  29.1337200  49.8932100
  17.7055540  29.5380150  49.0260530  17.5705080  28.2047560  49.7303700
  27.7310900  14.4238110  33.3371880  27.4183560  14.5164940  34.2370950
  28.4923370  15.0019140  33.2869310  14.2493040  21.7897910  37.7949220
  14.1290640  22.5160000  37.1830490  13.9393930  21.0200820  37.3177130
  11.8878410  24.9613050  43.6017860  11.9658830  25.0961820  42.6573580
  12.5020090  24.2528940  43.7945980  13.1326040  26.6613240  40.0124040
  12.7254120  26.8027830  39.1577640  14.0239050  26.3773400  39.8095250
  28.9412190  19.1609610  49.3146020  28.3256460  19.6689280  48.7861480
  28.6208610  18.2607940  49.2571960  11.9437930  26.0027220  46.1412320
  12.1068970  25.5332580  45.3231690  12.4090380  25.4950780  46.8061160
  16.7156700  15.1332980  41.1772890  16.2724850  15.9142520  40.8457410
  17.2741690  15.4562870  41.8843830  21.0026510  18.0001500  46.7808210
  20.5405880  18.2084520  47.5928150  20.6004620  17.1860850  46.4778880
  26.0031020  19.2210450  47.9104870  25.1524610  18.9216200  48.2313940
  25.8432810  19.4652460  46.9988690  23.0980730  20.7212200  50.0103660
  23.4234140  19.8875950  49.6705890  23.8861060  21.2440720  50.1581990
  19.8315520  14.7543680  36.0578720  19.2069700  14.7503550  36.7832030
  19.7445640  13.8874640  35.6614690  18.7532600  15.6780310  43.0362490
  19.0504930  16.5843140  42.9554510  19.3018160  15.1899090  42.4222060
  16.5070920  20.2566550  38.9054140  16.2811840  20.0403720  39.8100760
  15.7263450  20.6895010  38.5600110  23.7368680  20.2629920  37.5044790
  23.1377570  20.9865720  37.3208410  24.2848290  20.2006700  36.7221240
  18.9470130  21.1552130  49.5714410  18.8513730  20.2146860  49.4214810
  19.7902110  21.3767200  49.1762480  22.3433550  18.8993460  39.5348070
  22.7363120  19.2165660  38.7216760  22.7050400  18.0205340  39.6492590
  14.0780670  17.5665800  47.7248190  13.6844060  18.4141010  47.9320970
  13.3899070  16.9292170  47.9156830  20.6525720  17.6500770  50.7944930
  19.9624040  17.4572970  51.4291020  21.3958020  17.9335410  51.3269230
  11.3797720  15.4894260  41.7578270  11.0910770  16.0597120  42.4703250
  12.1243480  15.0098710  42.1209500  11.5667950  19.4314380  32.9680990
  11.4842620  20.3745140  33.1095980  11.2151010  19.2889290  32.0893340
  22.9288690  21.4899210  43.6298850  22.1969810  21.9986020  43.9788950
  22.5313030  20.6729190  43.3287630  19.3666080  18.1653410  42.0351340
  19.3702140  17.7243360  41.1855880  20.2617200  18.4870740  42.1423160
  15.2168460  18.0479900  40.9945550  14.8768510  18.5255130  41.7512600
  14.4545780  17.5945020  40.6346650  19.4286230  19.1665490  35.0258100
  19.5499050  19.1251970  35.9743920  19.0434740  20.0289640  34.8704830
  23.3914600  16.9432890  43.0421790  23.4087340  17.3941540  43.8863640
  23.1430180  16.0438530  43.2555230  18.4407730  21.4766630  34.4241400
  17.8724630  21.0284880  33.7977310  19.1496730  21.8359410  33.8906550
  26.8185350  14.3565070  48.8808170  27.1431120  13.6254730  49.4066150
  26.8541860  14.0378710  47.9789160  13.5176910  25.3778650  48.3008130
  13.1331700  24.7372320  48.8991090  13.8289100  26.0814770  48.8702860
  19.6674050  22.2255190  43.7816750  20.0344180  21.7513760  44.5278090
  19.4779110  23.0996760  44.1225090  12.5314540  16.9698880  39.9110220
  12.2461460  16.6054550  40.7488840  12.4693400  16.2379340  39.2973360
  17.4573420  21.2663830  46.1000960  17.1530490  22.1455810  46.3251320
  18.4119880  21.3263620  46.1358400  15.9855210  25.4724820  36.6967810
  15.2117470  24.9322440  36.5366530  16.7149840  24.9531430  36.3585570
  22.2053130  15.8628140  36.6323590  21.3917740  15.3641310  36.5568900
  22.0115080  16.7026390  36.2159940  22.1261990  24.5399240  48.3763200
  22.0599300  23.6194910  48.1220790  21.4967130  24.6374680  49.0907840
  16.0292610  25.1405200  40.3346620  16.5471280  24.3373460  40.2803510
  15.5776630  25.0784340  41.1763450  13.5137150  22.1066570  47.2472320
  13.1552090  22.7720420  47.8345660  13.2191710  21.2750120  47.6184940
  16.7150270  22.5650810  50.1311870  16.4150410  22.7107990  49.2339690
  17.4861510  22.0056100  50.0385260  12.0245200  22.1057830  33.8706920
  12.8940050  22.3882630  34.1542840  11.5335520  22.9193700  33.7555730
  19.1880010  23.4931040  37.9915200  19.6442790  24.3036290  38.2175390
  18.8368220  23.1754180  38.8233690  15.0891790  13.8368690  38.4637720
  14.9606420  13.8286590  39.4122640  14.2653810  14.1751780  38.1128730
  12.3916450  31.3185210  34.4368550  12.7514090  31.9174550  33.7825820
  12.2508790  31.8645100  35.2103580  12.0885720  15.5959810  47.9244420
  11.3744240  15.7956730  48.5297030  12.5080760  14.8199380  48.2959220
  12.3758310  29.5840070  48.9110950  12.4849430  28.6434810  48.7706340
  11.7238870  29.8494820  48.2624680  20.3670900  27.8555960  50.3109070
  20.0467770  27.1365200  50.8554760  19.6929260  28.5311030  50.3845130
  14.0091710  23.9231300  35.9988980  13.4019660  24.6630200  36.0084280
  14.4841060  24.0130660  35.1727180  23.5824500  18.0882120  45.6745870
  23.9505320  17.2677330  46.0025440  22.7222700  18.1484010  46.0901520
  26.9486530  17.0439060  36.4833430  26.3199690  17.1484730  35.7691660
  26.4538450  17.2635840  37.2727310  18.9170560  19.3225010  37.8991310
  18.2086710  19.7911350  38.3404920  19.2015040  18.6647020  38.5336500
  20.5426490  20.7421710  45.8983840  21.0411740  21.2167530  46.5635690
  20.6849440  19.8185230  46.1053870  22.9485990  16.0475670  39.3387100
  22.8253770  16.0661800  38.3896610  23.8970550  16.0954610  39.4585500
  17.1205580  17.6310090  35.2742020  17.9696110  18.0680240  35.2082210
  16.7536850  17.9430350  36.1014080  27.7493350  16.9589670  46.7412230
  27.2466950  17.6995070  47.0806040  28.5650010  17.3473670  46.4249020
  26.0415360  22.2022850  40.1873590  25.1005500  22.2173080  40.3621280
  26.3559430  21.4158810  40.6333890  16.0197000  23.8842450  33.7477550
  16.7860270  23.7723810  34.3102980  16.0971690  23.1880420  33.0954320
  14.7143760  21.3167520  34.4310440  14.7947350  20.3695030  34.5427840
  15.6063510  21.6474400  34.5371100  12.4003950  27.5336480  37.4086490
  11.4743730  27.7757620  37.3991900  12.8660380  28.3610740  37.2871240
  14.5216750  30.6508980  50.7230560  15.3229480  30.9721030  51.1365960
  14.0068570  30.2904560  51.4450470  12.2414560  23.1382440  49.6666610
  12.7453580  22.5589720  50.2382840  11.5021980  23.4222670  50.2042980
  19.1438180  25.8596630  33.2212900  19.0388820  25.2448980  33.9474280
  18.9762400  25.3362520  32.4375910  19.2952500  24.5453430  49.2002130
  18.5298170  25.1138430  49.1156800  19.4768460  24.2529640  48.3070360
  14.2737640  21.2812030  50.5616680  14.3142980  20.9825900  51.4701910
  15.1283140  21.6819640  50.4024200  18.0516030  23.8807580  35.7220190
  18.4732450  23.7147450  36.5651580  18.1766870  23.0707810  35.2275330
  16.2143450  19.8604130  48.5291170  15.6839910  19.3695080  47.9014510
  16.8831520  20.2888330  47.9949100  20.5643670  22.9045190  32.9697290
  21.0849330  22.1894210  32.6038440  21.2112070  23.5431060  33.2697800
  25.5843680  21.6669750  50.2971510  26.1664450  20.9122070  50.2091990
  25.7605450  22.1977190  49.5202990  16.7015750  16.8266500  48.6088460
  16.6072620  16.2087250  47.8839330  16.1213140  17.5532790  48.3818370
  19.4677190  15.3839740  45.6415850  19.0194490  15.4064000  44.7961400
  18.8342390  14.9858760  46.2386150  19.8736740  24.2794070  46.2628290
  20.2924850  25.1226800  46.0904530  18.9545370  24.4166110  46.0335070
  22.2100640  22.0110250  47.6466130  22.3296850  21.4151390  48.3860970
  23.0694640  22.0479940  47.2267430  24.5488540  22.5647440  46.2228640
  24.0223760  23.0890060  45.6193780  24.8919880  23.1974830  46.8538370
  16.9474930  19.9540810  32.6678350  16.7463990  19.0908170  33.0291690
  16.7766980  19.8674170  31.7299950  18.9769410  18.5531600  48.9041950
  19.5669100  18.2447450  49.5919770  18.1589650  18.0811350  49.0601850
  23.7962840  18.1697410  49.1374970  23.1078360  17.5078950  49.0724960
  24.5168860  17.7235680  49.5823430  24.4263240  14.7649040  35.1965230
  24.7065530  13.9216940  35.5524650  23.6528970  14.9972150  35.7103980
  15.7457730  17.0541430  32.6556230  16.0483630  17.0608860  31.7475380
  16.4852320  16.7039290  33.1523890  20.5806370  31.8198290  47.6372670
  20.5065070  32.7233430  47.9445040  19.6785210  31.5010190  47.6094740
  18.9642660  15.9976050  33.6412430  18.6164660  15.3200040  33.0614880
  19.1655430  15.5365560  34.4555820  14.7687860  26.3583850  33.4886030
  15.2062730  26.9013520  34.1443610  15.2535590  25.5330800  33.4982370
  12.3048300  22.5263700  40.0376800  11.6497140  22.2575340  39.3936500
  13.1426250  22.4168180  39.5878780  28.7528470  22.2329130  37.9571090
  28.3772070  21.4657060  37.5252380  28.0231590  22.6151830  38.4446020
  13.3424230  22.9116270  44.5780140  13.7097270  22.8243670  45.4576160
  12.7735050  22.1482820  44.4787000  28.1428090  21.3800650  47.5910610
  27.9114180  21.1513400  46.6908560  28.4032640  22.3000200  47.5455500
  12.8940230  19.8225360  48.4838560  11.9996280  19.7892120  48.8232270
  13.4337780  20.0212150  49.2489810  26.5816160  16.6057080  50.3690310
  27.4586340  16.6140480  50.7524310  26.5937000  15.8687920  49.7582660
  11.5186380  19.7362630  35.9802130  10.6150460  19.9992830  35.8053790
  12.0027000  20.0073800  35.2002090  28.0279430  20.4586620  41.2578330
  28.5516910  19.9649270  40.6268500  28.6138850  20.5936980  42.0025900
  28.2069150  20.5426490  44.7797880  27.2571860  20.5090030  44.8942870
  28.3882160  21.4526600  44.5447650  14.0613590  18.7928170  33.8896510
  14.7705290  18.3711390  33.4043790  13.3453530  18.8603400  33.2579860
  13.7087750  14.8467500  32.9299160  14.4315880  15.3876440  33.2480380
  13.9812270  14.5730920  32.0540700  27.5179400  19.7159970  37.1970740
  28.0138520  19.4830840  37.9819620  27.3195470  18.8771810  36.7808380
  13.3979940  14.0973690  42.8321780  14.0456130  13.5471070  42.3916940
  13.8181780  14.3516840  43.6537590  28.9466560  18.3520920  39.7308420
  28.8365840  18.1976960  40.6690690  29.7074150  17.8241860  39.4883830
  27.2932280  14.2915050  46.1891420  27.9304500  14.9049190  46.5550610
  27.4407170  14.3275710  45.2440650  13.1511940  14.2529360  45.5747100
  12.8026760  14.7093180  46.3405280  12.8199640  13.3586490  45.6569530
  14.7576310  27.4248960  49.7400290  14.7145940  27.0541870  50.6214750
  14.8887320  28.3626530  49.8802110  20.6636760  15.4441240  49.0966520
  20.6025650  16.0363070  49.8461930  21.6037140  15.3367200  48.9516780
  23.3011320  15.1011300  48.7358810  23.9151730  15.4190590  48.0739890
  23.8460880  14.6159890  49.3554670  13.8232580  13.7805560  48.8497870
  14.3715570  13.5993610  48.0863980  13.8887890  12.9899670  49.3854180
  24.0419360  13.6643440  45.0628100  23.1679200  13.9978550  44.8601030
  23.9330110  13.1916620  45.8879970  24.9491340  15.8714310  46.4469820
  24.6204700  15.0566070  46.0671550  25.8973640  15.8284120  46.3235510
  21.7894180  14.5813280  44.0021010  21.0065970  15.0558780  44.2817770
  21.4957110  13.6768110  43.8934190  26.3415250  15.2836380  42.0470100
  26.7823340  15.2281480  41.1991700  26.0722840  16.1994390  42.1180280
  28.2053820  14.9151620  40.0578920  28.1442220  13.9712840  39.9109940
  28.9845850  15.0231710  40.6032380  13.1334590  14.8860760  36.5234730
  13.8913950  14.9989640  35.9498760  12.6711760  15.7229960  36.4778160
  19.6748400  17.0000030  39.5137040  18.8622910  16.6256920  39.1732920
  20.1790040  16.2445110  39.8158230  24.1773380  13.6642480  40.7520110
  24.7802750  14.2362690  41.2268630  23.4366370  14.2281920  40.5294010
  27.3207980  14.0664040  36.0260390  27.5158610  14.9647490  36.2927820
  26.5337850  13.8351120  36.5193340  14.1169270  29.7477210  36.4653010
  13.5916890  30.1285240  35.7614970  14.0413850  30.3727980  37.1862720
  15.5059740  15.4124810  35.0636700  16.0352500  14.6254610  34.9344650
  16.1388060  16.0916000  35.2972230  17.6997580  15.1499950  38.1182090
  17.0700320  14.4487260  38.2852220  17.1602720  15.9104080  37.9015250
  20.6389530  31.7639180  50.7892700  21.5656840  31.5283450  50.8328660
  20.6239960  32.5911180  50.3078730  17.8253140  14.4283930  50.5534580
  17.5437410  14.9317530  49.7895400  18.2072840  13.6305680  50.1876710
  15.8777030  27.8124320  35.3448590  15.2485910  28.2809420  35.8934420
  15.9924860  26.9673540  35.7794780  24.4268600  13.8437510  51.1315050
  24.3134050  14.1632120  52.0266570  25.2438340  14.2450020  50.8352330
  27.2067090  30.9909040  50.6133740  27.9992410  30.4958270  50.4059700
  27.5000240  31.6699180  51.2209350  23.3326750  21.8629980  21.4949790
  23.2520800  20.9484590  21.2241500  22.9191170  22.3597050  20.7889500
  21.4644790  23.6409000  23.3759060  20.6886890  23.1609440  23.6657630
  22.1157720  22.9614650  23.2015220  15.4810620  23.9528810  24.2534820
  14.6495500  23.6977520  24.6531330  16.0891600  24.0239580  24.9892740
  15.4611880  27.9868900  24.4492840  15.7639920  27.0966640  24.2703060
  16.2055470  28.5439120  24.2215090  13.8902570  18.9130700  18.0377210
  13.0019270  19.2546670  17.9357090  14.1743760  18.7131020  17.1458040
  11.8535580  21.5136350  23.9216910  12.4251690  20.7458550  23.9220550
  11.8537120  21.8125110  23.0123520  13.0960450  16.9220710  25.7085840
  12.9163290  16.0246460  25.9888600  12.6940530  17.4692580  26.3832790
  21.9358950  19.1236570  23.6098150  22.3123770  18.2508450  23.4971820
  21.8378460  19.4595270  22.7188590  16.0663960  17.4962200  19.0715590
  16.1730710  18.3965930  19.3784350  15.1556320  17.4480170  18.7810240
  25.7183070  16.6187010  20.5426490  26.5392690  16.1283580  20.5851970
  25.7517150  17.2084670  21.2958330  13.7147120  19.4181210  24.3168180
  14.3957230  19.6819580  24.9355580  13.3995170  18.5782080  24.6506190
  17.9071690  20.4648570  23.4040770  18.4149910  20.9629540  24.0445790
  18.4384930  19.6883770  23.2280130  16.1907790  15.1047130  27.6704190
  16.1926230  15.6219520  26.8650090  15.3612100  14.6277310  27.6474120
  22.5778880  25.2166440  19.1694090  21.9596150  25.6815890  18.6056810
  23.0902130  25.9093920  19.5863600  17.4410640  24.7442310  25.8477690
  17.1080020  25.3711230  26.4898760  17.6177320  25.2704190  25.0679360
  25.9544550  18.5587390  23.3154030  25.2500120  18.8472280  23.8957140
  26.3156710  19.3687500  22.9553590  15.8723120  16.8157090  25.6774640
  16.2139930  17.6599140  25.3828510  14.9338930  16.9640830  25.7939980
  16.6529740  26.7123110  27.6626870  17.2703740  27.3874190  27.3811320
  15.7922860  27.1211090  27.5714370  11.9462080  25.9022970  16.5433720
  11.5690060  26.3910070  15.8118620  12.2035150  26.5748250  17.1740250
  29.0231470  18.0042180  23.7063240  28.0756380  18.0381160  23.8378670
  29.3481460  18.8181130  24.0912600  19.5551010  14.3039360  22.0019230
  19.8625990  13.7486250  21.2854730  18.6251710  14.4383820  21.8192220
  21.9431770  22.3688190  18.7379350  21.0161050  22.3025570  18.9667820
  22.0956590  23.3068320  18.6234590  21.9300850  18.6405190  15.7346510
  20.9904520  18.8019150  15.8198970  22.2484110  19.3590870  15.1882500
  25.9729060  23.9308490  19.2414600  25.3541480  23.5928040  18.5940900
  25.9553510  23.2868250  19.9493790  17.5488410  22.8952930  21.5199080
  17.1445410  22.1830180  21.0244980  17.6351530  22.5506170  22.4087120
  18.0170110  26.5820490  23.6838290  17.7198400  25.9765960  23.0046070
  18.9669930  26.6197800  23.5727650  16.2617030  19.6696140  25.2998120
  16.8131620  19.7791480  24.5251370  16.7760540  20.0433740  26.0153350
  17.1088540  26.3202180  30.3346090  16.2117070  26.5442150  30.5819490
  17.1341410  26.4437120  29.3857490  24.1493760  23.1695300  16.2487350
  24.5887040  22.3317730  16.1025170  24.8622180  23.8024700  16.3351490
  15.9359760  23.1915500  28.9103460  15.7967530  24.0638300  29.2790860
  15.0541120  22.8488310  28.7651400  17.7340110  29.1337200  31.1188610
  17.7055540  29.5380150  30.2517040  17.5705080  28.2047560  30.9560210
  27.7310900  14.4238110  14.5628390  27.4183560  14.5164940  15.4627460
  28.4923370  15.0019140  14.5125820  14.2493040  21.7897910  19.0205730
  14.1290640  22.5160000  18.4087000  13.9393930  21.0200820  18.5433640
  11.8878410  24.9613050  24.8274370  11.9658830  25.0961820  23.8830090
  12.5020090  24.2528940  25.0202490  13.1326040  26.6613240  21.2380550
  12.7254120  26.8027830  20.3834150  14.0239050  26.3773400  21.0351760
  11.9437930  26.0027220  27.3668830  12.1068970  25.5332580  26.5488200
  12.4090380  25.4950780  28.0317670  16.7156700  15.1332980  22.4029400
  16.2724850  15.9142520  22.0713920  17.2741690  15.4562870  23.1100340
  21.0026510  18.0001500  28.0064720  20.5405880  18.2084520  28.8184660
  20.6004620  17.1860850  27.7035390  19.8315520  14.7543680  17.2835230
  19.2069700  14.7503550  18.0088540  19.7445640  13.8874640  16.8871200
  18.7532600  15.6780310  24.2619000  19.0504930  16.5843140  24.1811020
  19.3018160  15.1899090  23.6478570  16.5070920  20.2566550  20.1310650
  16.2811840  20.0403720  21.0357270  15.7263450  20.6895010  19.7856620
  23.7368680  20.2629920  18.7301300  23.1377570  20.9865720  18.5464920
  24.2848290  20.2006700  17.9477750  18.9470130  21.1552130  30.7970920
  18.8513730  20.2146860  30.6471320  19.7902110  21.3767200  30.4018990
  22.3433550  18.8993460  20.7604580  22.7363120  19.2165660  19.9473270
  22.7050400  18.0205340  20.8749100  14.0780670  17.5665800  28.9504700
  13.6844060  18.4141010  29.1577480  13.3899070  16.9292170  29.1413340
  20.6525720  17.6500770  32.0201440  19.9624040  17.4572970  32.6547530
  21.3958020  17.9335410  32.5525740  11.3797720  15.4894260  22.9834780
  11.0910770  16.0597120  23.6959760  12.1243480  15.0098710  23.3466010
  11.5667950  19.4314380  14.1937500  11.4842620  20.3745140  14.3352490
  11.2151010  19.2889290  13.3149850  22.9288690  21.4899210  24.8555360
  22.1969810  21.9986020  25.2045460  22.5313030  20.6729190  24.5544140
  19.3666080  18.1653410  23.2607850  19.3702140  17.7243360  22.4112390
  20.2617200  18.4870740  23.3679670  15.2168460  18.0479900  22.2202060
  14.8768510  18.5255130  22.9769110  14.4545780  17.5945020  21.8603160
  19.4286230  19.1665490  16.2514610  19.5499050  19.1251970  17.2000430
  19.0434740  20.0289640  16.0961340  23.3914600  16.9432890  24.2678300
  23.4087340  17.3941540  25.1120150  23.1430180  16.0438530  24.4811740
  18.4407730  21.4766630  15.6497910  17.8724630  21.0284880  15.0233820
  19.1496730  21.8359410  15.1163060  26.8185350  14.3565070  30.1064680
  27.1431120  13.6254730  30.6322660  26.8541860  14.0378710  29.2045670
  13.5176910  25.3778650  29.5264640  13.1331700  24.7372320  30.1247600
  13.8289100  26.0814770  30.0959370  19.6674050  22.2255190  25.0073260
  20.0344180  21.7513760  25.7534600  19.4779110  23.0996760  25.3481600
  12.5314540  16.9698880  21.1366730  12.2461460  16.6054550  21.9745350
  12.4693400  16.2379340  20.5229870  17.4573420  21.2663830  27.3257470
  17.1530490  22.1455810  27.5507830  18.4119880  21.3263620  27.3614910
  15.9855210  25.4724820  17.9224320  15.2117470  24.9322440  17.7623040
  16.7149840  24.9531430  17.5842080  26.7443190  24.4690180  23.7150710
  27.4642310  24.9645470  23.3246820  26.5425010  23.7908070  23.0704580
  22.2053130  15.8628140  17.8580100  21.3917740  15.3641310  17.7825410
  22.0115080  16.7026390  17.4416450  24.9201520  20.2347790  16.1542260
  25.8081140  20.5465020  15.9793600  24.8906610  19.3620040  15.7622840
  16.0292610  25.1405200  21.5603130  16.5471280  24.3373460  21.5060020
  15.5776630  25.0784340  22.4019960  20.9162110  26.4071480  16.8330430
  21.2577810  27.1513710  16.3373750  20.0874820  26.7202600  17.1955260
  13.5137150  22.1066570  28.4728830  13.1552090  22.7720420  29.0602170
  13.2191710  21.2750120  28.8441450  16.7150270  22.5650810  31.3568380
  16.4150410  22.7107990  30.4596200  17.4861510  22.0056100  31.2641770
  22.0578720  27.3619810  29.3523510  22.0723260  26.4300770  29.1342420
  21.3503820  27.4479570  29.9913280  27.1915790  21.5459630  15.6222120
  27.1079510  21.9773850  14.7718560  27.9109980  22.0057980  16.0548940
  23.7989520  25.7287320  22.1975940  24.1513340  25.1315450  21.5377310
  22.9151850  25.4031550  22.3684190  12.0245200  22.1057830  15.0963430
  12.8940050  22.3882630  15.3799350  11.5335520  22.9193700  14.9812240
  19.1880010  23.4931040  19.2171710  19.6442790  24.3036290  19.4431900
  18.8368220  23.1754180  20.0490200  21.4912620  29.0037380  26.4464010
  22.1354840  29.2096760  27.1237430  21.8542060  28.2425780  25.9934860
  15.0891790  13.8368690  19.6894230  14.9606420  13.8286590  20.6379150
  14.2653810  14.1751780  19.3385240  22.7644700  27.0069730  25.1641460
  23.4066930  26.3062890  25.2773630  23.2894050  27.7868170  24.9838350
  12.3916450  31.3185210  15.6625060  12.7514090  31.9174550  15.0082330
  12.2508790  31.8645100  16.4360090  12.0885720  15.5959810  29.1500930
  11.3744240  15.7956730  29.7553540  12.5080760  14.8199380  29.5215730
  26.1916670  25.2090290  16.5494760  25.9038370  25.6702980  17.3372640
  26.9868840  24.7488060  16.8178980  12.3758310  29.5840070  30.1367460
  12.4849430  28.6434810  29.9962850  11.7238870  29.8494820  29.4881190
  20.3670900  27.8555960  31.5365580  20.0467770  27.1365200  32.0811270
  19.6929260  28.5311030  31.6101640  18.4085070  28.7016410  16.4798730
  18.3995170  29.4346100  15.8643240  17.4883430  28.4547990  16.5725690
  14.0091710  23.9231300  17.2245490  13.4019660  24.6630200  17.2340790
  14.4841060  24.0130660  16.3983690  23.5824500  18.0882120  26.9002380
  23.9505320  17.2677330  27.2281950  22.7222700  18.1484010  27.3158030
  26.9486530  17.0439060  17.7089940  26.3199690  17.1484730  16.9948170
  26.4538450  17.2635840  18.4983820  21.3944670  28.7644650  15.1423920
  21.4956650  28.5608640  14.2125900  20.4946410  28.5102930  15.3471700
  18.9170560  19.3225010  19.1247820  18.2086710  19.7911350  19.5661430
  19.2015040  18.6647020  19.7593010  20.5426490  20.7421710  27.1240350
  21.0411740  21.2167530  27.7892200  20.6849440  19.8185230  27.3310380
  22.9485990  16.0475670  20.5643610  22.8253770  16.0661800  19.6153120
  23.8970550  16.0954610  20.6842010  17.1205580  17.6310090  16.4998530
  17.9696110  18.0680240  16.4338720  16.7536850  17.9430350  17.3270590
  27.7493350  16.9589670  27.9668740  27.2466950  17.6995070  28.3062550
  28.5650010  17.3473670  27.6505530  26.0415360  22.2022850  21.4130100
  25.1005500  22.2173080  21.5877790  26.3559430  21.4158810  21.8590400
  16.0197000  23.8842450  14.9734060  16.7860270  23.7723810  15.5359490
  16.0971690  23.1880420  14.3210830  14.7143760  21.3167520  15.6566950
  14.7947350  20.3695030  15.7684350  15.6063510  21.6474400  15.7627610
  15.5158470  31.4662910  22.7601490  16.2520950  30.9178370  23.0310060
  15.8999390  32.3318920  22.6207480  12.4003950  27.5336480  18.6343000
  11.4743730  27.7757620  18.6248410  12.8660380  28.3610740  18.5127750
  14.5216750  30.6508980  31.9487070  15.3229480  30.9721030  32.3622470
  14.0068570  30.2904560  32.6706980  18.6260780  30.6393220  14.5827060
  19.4189390  30.9282050  14.1308850  18.1065130  30.2085390  13.9039540
  12.2414560  23.1382440  30.8923120  12.7453580  22.5589720  31.4639350
  11.5021980  23.4222670  31.4299490  19.1438180  25.8596630  14.4469410
  19.0388820  25.2448980  15.1730790  18.9762400  25.3362520  13.6632420
  19.2952500  24.5453430  30.4258640  18.5298170  25.1138430  30.3413310
  19.4768460  24.2529640  29.5326870  22.3840910  24.9216660  15.0511400
  21.8351010  25.3685960  15.6954140  23.0060170  24.4165910  15.5749070
  14.2737640  21.2812030  31.7873190  14.3142980  20.9825900  32.6958420
  15.1283140  21.6819640  31.6280710  18.0516030  23.8807580  16.9476700
  18.4732450  23.7147450  17.7908090  18.1766870  23.0707810  16.4531840
  16.2143450  19.8604130  29.7547680  15.6839910  19.3695080  29.1271020
  16.8831520  20.2888330  29.2205610  20.5643670  22.9045190  14.1953800
  21.0849330  22.1894210  13.8294950  21.2112070  23.5431060  14.4954310
  16.7015750  16.8266500  29.8344970  16.6072620  16.2087250  29.1095840
  16.1213140  17.5532790  29.6074880  19.4677190  15.3839740  26.8672360
  19.0194490  15.4064000  26.0217910  18.8342390  14.9858760  27.4642660
  19.8736740  24.2794070  27.4884800  20.2924850  25.1226800  27.3161040
  18.9545370  24.4166110  27.2591580  16.9474930  19.9540810  13.8934860
  16.7463990  19.0908170  14.2548200  16.7766980  19.8674170  12.9556460
  17.7244160  30.5847080  28.6042530  17.1865250  31.3093140  28.2851230
  17.9778120  30.1077420  27.8139870  18.9769410  18.5531600  30.1298460
  19.5669100  18.2447450  30.8176280  18.1589650  18.0811350  30.2858360
  24.4263240  14.7649040  16.4221740  24.7065530  13.9216940  16.7781160
  23.6528970  14.9972150  16.9360490  15.7457730  17.0541430  13.8812740
  16.0483630  17.0608860  12.9731890  16.4852320  16.7039290  14.3780400
  20.5806370  31.8198290  28.8629180  20.5065070  32.7233430  29.1701550
  19.6785210  31.5010190  28.8351250  18.9642660  15.9976050  14.8668940
  18.6164660  15.3200040  14.2871390  19.1655430  15.5365560  15.6812330
  14.7687860  26.3583850  14.7142540  15.2062730  26.9013520  15.3700120
  15.2535590  25.5330800  14.7238880  11.9833660  29.1472880  22.1662800
  12.3136670  28.2793940  21.9341440  12.4124660  29.3531400  22.9967760
  16.5795580  27.4781890  19.8264770  16.2791120  27.3546860  20.7268680
  16.4733070  26.6190480  19.4180500  12.4723870  30.0143470  24.9044430
  12.0354860  30.1944270  25.7368580  13.0401550  30.7718090  24.7626150
  29.3487500  27.2578290  14.5291450  28.5180460  27.3254940  14.9998680
  29.5259330  28.1482410  14.2258310  28.8043960  24.0025770  17.0325650
  29.5662870  24.5722420  17.1385340  28.8198330  23.4352970  17.8033960
  12.3048300  22.5263700  21.2633310  11.6497140  22.2575340  20.6193010
  13.1426250  22.4168180  20.8135290  29.8103930  24.8575870  21.8767580
  30.1812760  24.0743190  21.4703550  30.4505860  25.5464970  21.6984880
  28.8563130  24.2960140  14.1898170  29.1311970  25.2039020  14.0617390
  28.6673870  24.2322670  15.1260160  25.2538740  17.3204990  15.4851800
  25.6723620  17.1335970  14.6448460  24.9474800  16.4684040  15.7954730
  28.7528470  22.2329130  19.1827600  28.3772070  21.4657060  18.7508890
  28.0231590  22.6151830  19.6702530  13.3424230  22.9116270  25.8036650
  13.7097270  22.8243670  26.6832670  12.7735050  22.1482820  25.7043510
  12.8940230  19.8225360  29.7095070  11.9996280  19.7892120  30.0488780
  13.4337780  20.0212150  30.4746320  11.5186380  19.7362630  17.2058640
  10.6150460  19.9992830  17.0310300  12.0027000  20.0073800  16.4258600
  28.0279430  20.4586620  22.4834840  28.5516910  19.9649270  21.8525010
  28.6138850  20.5936980  23.2282410  14.0613590  18.7928170  15.1153020
  14.7705290  18.3711390  14.6300300  13.3453530  18.8603400  14.4836370
  13.7087750  14.8467500  14.1555670  14.4315880  15.3876440  14.4736890
  13.9812270  14.5730920  13.2797210  27.5179400  19.7159970  18.4227250
  28.0138520  19.4830840  19.2076130  27.3195470  18.8771810  18.0064890
  13.3979940  14.0973690  24.0578290  14.0456130  13.5471070  23.6173450
  13.8181780  14.3516840  24.8794100  28.9466560  18.3520920  20.9564930
  28.8365840  18.1976960  21.8947200  29.7074150  17.8241860  20.7140340
  27.2932280  14.2915050  27.4147930  27.9304500  14.9049190  27.7807120
  27.4407170  14.3275710  26.4697160  29.8356830  16.1828840  14.1971070
  30.7606140  16.0510020  13.9889360  29.8132620  16.2621660  15.1507520
  29.9095320  16.9539500  16.8227780  29.1146820  16.8884620  17.3520690
  30.1138600  17.8890140  16.8113130  13.1511940  14.2529360  26.8003610
  12.8026760  14.7093180  27.5661790  12.8199640  13.3586490  26.8826040
  14.7576310  27.4248960  30.9656800  14.7145940  27.0541870  31.8471260
  14.8887320  28.3626530  31.1058620  18.4582340  28.9808550  26.5666520
  18.2173700  29.2483110  25.6797040  19.3984980  29.1514280  26.6217380
  20.6636760  15.4441240  30.3223030  20.6025650  16.0363070  31.0718440
  21.6037140  15.3367200  30.1773290  23.3011320  15.1011300  29.9615320
  23.9151730  15.4190590  29.2996400  23.8460880  14.6159890  30.5811180
  13.8232580  13.7805560  30.0754380  14.3715570  13.5993610  29.3120490
  13.8887890  12.9899670  30.6110690  14.5964340  30.3711210  28.0854580
  14.0024660  30.2395910  28.8244620  14.5888180  29.5349350  27.6196680
  24.0419360  13.6643440  26.2884610  23.1679200  13.9978550  26.0857540
  23.9330110  13.1916620  27.1136480  24.9491340  15.8714310  27.6726330
  24.6204700  15.0566070  27.2928060  25.8973640  15.8284120  27.5492020
  14.2276570  27.7369590  27.0362620  13.5010630  27.1174880  26.9688570
  14.2885720  28.1310200  26.1660700  21.7894180  14.5813280  25.2277520
  21.0065970  15.0558780  25.5074280  21.4957110  13.6768110  25.1190700
  26.3415250  15.2836380  23.2726610  26.7823340  15.2281480  22.4248210
  26.0722840  16.1994390  23.3436790  28.2053820  14.9151620  21.2835430
  28.1442220  13.9712840  21.1366450  28.9845850  15.0231710  21.8288890
  12.5106570  31.0543980  20.2459380  12.3428610  30.4214660  20.9441270
  11.6441080  31.2603380  19.8953570  13.1334590  14.8860760  17.7491240
  13.8913950  14.9989640  17.1755270  12.6711760  15.7229960  17.7034670
  19.6748400  17.0000030  20.7393550  18.8622910  16.6256920  20.3989430
  20.1790040  16.2445110  21.0414740  24.1773380  13.6642480  21.9776620
  24.7802750  14.2362690  22.4525140  23.4366370  14.2281920  21.7550520
  27.3207980  14.0664040  17.2516900  27.5158610  14.9647490  17.5184330
  26.5337850  13.8351120  17.7449850  14.1169270  29.7477210  17.6909520
  13.5916890  30.1285240  16.9871480  14.0413850  30.3727980  18.4119230
  15.5059740  15.4124810  16.2893210  16.0352500  14.6254610  16.1601160
  16.1388060  16.0916000  16.5228740  17.6997580  15.1499950  19.3438600
  17.0700320  14.4487260  19.5108730  17.1602720  15.9104080  19.1271760
  17.8253140  14.4283930  31.7791090  17.5437410  14.9317530  31.0151910
  18.2072840  13.6305680  31.4133220  16.7162240  31.6959590  16.5658770
  17.4481060  31.4118870  16.0182660  16.9755910  31.4572870  17.4558150
  15.8777030  27.8124320  16.5705100  15.2485910  28.2809420  17.1190930
  15.9924860  26.9673540  17.0051290  24.4268600  13.8437510  32.3571560
  24.3134050  14.1632120  33.2523080  25.2438340  14.2450020  32.0608840
  23.3326750  21.8629980   2.7206300  23.2520800  20.9484590   2.4498010
  22.9191170  22.3597050   2.0146010  21.4644790  23.6409000   4.6015570
  20.6886890  23.1609440   4.8914140  22.1157720  22.9614650   4.4271730
  15.4810620  23.9528810   5.4791330  14.6495500  23.6977520   5.8787840
  16.0891600  24.0239580   6.2149250  25.4852220  28.0469190   3.3814700
  25.0233750  27.2756430   3.7101870  26.2977770  28.0735260   3.8867150
  15.4611880  27.9868900   5.6749350  15.7639920  27.0966640   5.4959570
  16.2055470  28.5439120   5.4471600  11.8535580  21.5136350   5.1473420
  12.4251690  20.7458550   5.1477060  11.8537120  21.8125110   4.2380030
  21.7115530  30.3327200   3.0018690  21.0926970  30.7884700   2.4313130
  22.5667310  30.4878660   2.6008390  20.9053780  26.3166190   4.6085730
  20.8362060  25.3756130   4.4474860  21.6673640  26.4067600   5.1808300
  13.0960450  16.9220710   6.9342350  12.9163290  16.0246460   7.2145110
  12.6940530  17.4692580   7.6089300  21.9358950  19.1236570   4.8354660
  22.3123770  18.2508450   4.7228330  21.8378460  19.4595270   3.9445100
  25.7183070  16.6187010   1.7683000  26.5392690  16.1283580   1.8108480
  25.7517150  17.2084670   2.5214840  13.7147120  19.4181210   5.5424690
  14.3957230  19.6819580   6.1612090  13.3995170  18.5782080   5.8762700
  17.9071690  20.4648570   4.6297280  18.4149910  20.9629540   5.2702300
  18.4384930  19.6883770   4.4536640  30.0082620  18.6353760   8.3326630
  29.3034790  19.0235470   7.8141740  30.2740540  19.3304050   8.9347560
  16.1907790  15.1047130   8.8960700  16.1926230  15.6219520   8.0906600
  15.3612100  14.6277310   8.8730630  17.4410640  24.7442310   7.0734200
  17.1080020  25.3711230   7.7155270  17.6177320  25.2704190   6.2935870
  25.9544550  18.5587390   4.5410540  25.2500120  18.8472280   5.1213650
  26.3156710  19.3687500   4.1810100  15.8723120  16.8157090   6.9031150
  16.2139930  17.6599140   6.6085020  14.9338930  16.9640830   7.0196490
  16.6529740  26.7123110   8.8883380  17.2703740  27.3874190   8.6067830
  15.7922860  27.1211090   8.7970880  27.5707330  28.1762520   6.8038020
  26.8870850  28.8461630   6.7954690  28.1101620  28.3743170   6.0382880
  29.0231470  18.0042180   4.9319750  28.0756380  18.0381160   5.0635180
  29.3481460  18.8181130   5.3169110  19.5551010  14.3039360   3.2275740
  19.8625990  13.7486250   2.5111240  18.6251710  14.4383820   3.0448730
  25.1066070  30.0206650   5.5183200  25.1193230  29.6168940   4.6505460
  24.5541290  30.7953940   5.4144630  24.5051510  24.9236490   6.8465810
  24.9220300  24.7096600   6.0119270  25.2291330  25.1809280   7.4174430
  28.4513610  23.3223710   6.9382050  27.6232240  23.3916800   6.4632180
  29.0464090  23.9078020   6.4697880  25.4155620  20.1093030   7.8836920
  25.0026800  20.9346740   8.1376910  24.6831570  19.5238070   7.6913280
  17.5488410  22.8952930   2.7455590  17.1445410  22.1830180   2.2501490
  17.6351530  22.5506170   3.6343630  18.0170110  26.5820490   4.9094800
  17.7198400  25.9765960   4.2302580  18.9669930  26.6197800   4.7984160
  16.2617030  19.6696140   6.5254630  16.8131620  19.7791480   5.7507880
  16.7760540  20.0433740   7.2409860  26.1055720  30.1552360   8.5717900
  25.6286280  30.9624550   8.3790510  25.4217510  29.5030690   8.7244110
  17.1088540  26.3202180  11.5602600  16.2117070  26.5442150  11.8076000
  17.1341410  26.4437120  10.6114000  15.9359760  23.1915500  10.1359970
  15.7967530  24.0638300  10.5047370  15.0541120  22.8488310   9.9907910
  17.7340110  29.1337200  12.3445120  17.7055540  29.5380150  11.4773550
  17.5705080  28.2047560  12.1816720  29.6854930  29.9164300  13.6409290
  30.1614650  30.3947190  14.3198370  30.3062090  29.8481790  12.9154790
  11.8878410  24.9613050   6.0530880  11.9658830  25.0961820   5.1086600
  12.5020090  24.2528940   6.2459000  29.0888180  27.1077150  10.8009300
  29.2151240  26.8689030   9.8826480  29.1309560  26.2761690  11.2731380
  22.9504920  30.8105150   9.3704110  23.4649590  30.7213160  10.1726540
  22.1074000  31.1564850   9.6632020  28.9412190  19.1609610  11.7659040
  28.3256460  19.6689280  11.2374500  28.6208610  18.2607940  11.7084980
  11.9437930  26.0027220   8.5925340  12.1068970  25.5332580   7.7744710
  12.4090380  25.4950780   9.2574180  16.7156700  15.1332980   3.6285910
  16.2724850  15.9142520   3.2970430  17.2741690  15.4562870   4.3356850
  21.0026510  18.0001500   9.2321230  20.5405880  18.2084520  10.0441170
  20.6004620  17.1860850   8.9291900  26.0031020  19.2210450  10.3617890
  25.1524610  18.9216200  10.6826960  25.8432810  19.4652460   9.4501710
  23.0980730  20.7212200  12.4616680  23.4234140  19.8875950  12.1218910
  23.8861060  21.2440720  12.6095010  18.7532600  15.6780310   5.4875510
  19.0504930  16.5843140   5.4067530  19.3018160  15.1899090   4.8735080
  18.9470130  21.1552130  12.0227430  18.8513730  20.2146860  11.8727830
  19.7902110  21.3767200  11.6275500  14.0780670  17.5665800  10.1761210
  13.6844060  18.4141010  10.3833990  13.3899070  16.9292170  10.3669850
  20.6525720  17.6500770  13.2457950  19.9624040  17.4572970  13.8804040
  21.3958020  17.9335410  13.7782250  11.3797720  15.4894260   4.2091290
  11.0910770  16.0597120   4.9216270  12.1243480  15.0098710   4.5722520
  22.9288690  21.4899210   6.0811870  22.1969810  21.9986020   6.4301970
  22.5313030  20.6729190   5.7800650  19.3666080  18.1653410   4.4864360
  19.3702140  17.7243360   3.6368900  20.2617200  18.4870740   4.5936180
  15.2168460  18.0479900   3.4458570  14.8768510  18.5255130   4.2025620
  14.4545780  17.5945020   3.0859670  23.3914600  16.9432890   5.4934810
  23.4087340  17.3941540   6.3376660  23.1430180  16.0438530   5.7068250
  26.8185350  14.3565070  11.3321190  27.1431120  13.6254730  11.8579170
  26.8541860  14.0378710  10.4302180  13.5176910  25.3778650  10.7521150
  13.1331700  24.7372320  11.3504110  13.8289100  26.0814770  11.3215880
  19.6674050  22.2255190   6.2329770  20.0344180  21.7513760   6.9791110
  19.4779110  23.0996760   6.5738110  12.5314540  16.9698880   2.3623240
  12.2461460  16.6054550   3.2001860  12.4693400  16.2379340   1.7486380
  17.4573420  21.2663830   8.5513980  17.1530490  22.1455810   8.7764340
  18.4119880  21.3263620   8.5871420  26.7443190  24.4690180   4.9407220
  27.4642310  24.9645470   4.5503330  26.5425010  23.7908070   4.2961090
  22.1261990  24.5399240  10.8276220  22.0599300  23.6194910  10.5733810
  21.4967130  24.6374680  11.5420860  16.0292610  25.1405200   2.7859640
  16.5471280  24.3373460   2.7316530  15.5776630  25.0784340   3.6276470
  13.5137150  22.1066570   9.6985340  13.1552090  22.7720420  10.2858680
  13.2191710  21.2750120  10.0697960  16.7150270  22.5650810  12.5824890
  16.4150410  22.7107990  11.6852710  17.4861510  22.0056100  12.4898280
  22.0578720  27.3619810  10.5780020  22.0723260  26.4300770  10.3598930
  21.3503820  27.4479570  11.2169790  28.2689930  24.0027150   9.9248600
  27.5438120  24.5955930   9.7277990  28.7965390  23.9950690   9.1261970
  23.7989520  25.7287320   3.4232450  24.1513340  25.1315450   2.7633820
  22.9151850  25.4031550   3.5940700  21.4912620  29.0037380   7.6720520
  22.1354840  29.2096760   8.3493940  21.8542060  28.2425780   7.2191370
  22.7644700  27.0069730   6.3897970  23.4066930  26.3062890   6.5030140
  23.2894050  27.7868170   6.2094860  24.5382320  27.8064630   9.5934030
  24.8738560  28.3931320  10.2711950  23.6182660  27.6757340   9.8231820
  12.0885720  15.5959810  10.3757440  11.3744240  15.7956730  10.9810050
  12.5080760  14.8199380  10.7472240  12.3758310  29.5840070  11.3623970
  12.4849430  28.6434810  11.2219360  11.7238870  29.8494820  10.7137700
  20.3670900  27.8555960  12.7622090  20.0467770  27.1365200  13.3067780
  19.6929260  28.5311030  12.8358150  23.5824500  18.0882120   8.1258890
  23.9505320  17.2677330   8.4538460  22.7222700  18.1484010   8.5414540
  20.5426490  20.7421710   8.3496860  21.0411740  21.2167530   9.0148710
  20.6849440  19.8185230   8.5566890  27.7493350  16.9589670   9.1925250
  27.2466950  17.6995070   9.5319060  28.5650010  17.3473670   8.8762040
  26.0415360  22.2022850   2.6386610  25.1005500  22.2173080   2.8134300
  26.3559430  21.4158810   3.0846910  28.0440940  29.3731700   4.3140870
  28.1688360  30.1962870   4.7864680  28.9106500  29.1622430   3.9665020
  15.5158470  31.4662910   3.9858000  16.2520950  30.9178370   4.2566570
  15.8999390  32.3318920   3.8463990  14.5216750  30.6508980  13.1743580
  15.3229480  30.9721030  13.5878980  14.0068570  30.2904560  13.8963490
  23.3581380  26.7588850  13.1218990  22.7519540  26.7820450  12.3814740
  23.0535490  26.0271890  13.6586240  24.7881750  30.4869140  11.7328400
  25.7403500  30.4027160  11.6828640  24.6409970  31.1510850  12.4062190
  12.2414560  23.1382440  12.1179630  12.7453580  22.5589720  12.6895860
  11.5021980  23.4222670  12.6556000  19.2952500  24.5453430  11.6515150
  18.5298170  25.1138430  11.5669820  19.4768460  24.2529640  10.7583380
  26.4375850  26.2758760  12.2090170  27.1785320  26.6134520  11.7057630
  25.6748530  26.4450820  11.6559940  14.2737640  21.2812030  13.0129700
  14.3142980  20.9825900  13.9214930  15.1283140  21.6819640  12.8537220
  16.2143450  19.8604130  10.9804190  15.6839910  19.3695080  10.3527530
  16.8831520  20.2888330  10.4462120  25.1121510  24.3273590  10.7445380
  25.5262530  24.4818670  11.5935800  24.1772510  24.4528810  10.9071160
  25.5843680  21.6669750  12.7484530  26.1664450  20.9122070  12.6605010
  25.7605450  22.1977190  11.9716010  16.7015750  16.8266500  11.0601480
  16.6072620  16.2087250  10.3352350  16.1213140  17.5532790  10.8331390
  19.4677190  15.3839740   8.0928870  19.0194490  15.4064000   7.2474420
  18.8342390  14.9858760   8.6899170  19.8736740  24.2794070   8.7141310
  20.2924850  25.1226800   8.5417550  18.9545370  24.4166110   8.4848090
  22.2100640  22.0110250  10.0979150  22.3296850  21.4151390  10.8373990
  23.0694640  22.0479940   9.6780450  24.5488540  22.5647440   8.6741660
  24.0223760  23.0890060   8.0706800  24.8919880  23.1974830   9.3051390
  17.7244160  30.5847080   9.8299040  17.1865250  31.3093140   9.5107740
  17.9778120  30.1077420   9.0396380  18.9769410  18.5531600  11.3554970
  19.5669100  18.2447450  12.0432790  18.1589650  18.0811350  11.5114870
  23.7962840  18.1697410  11.5887990  23.1078360  17.5078950  11.5237980
  24.5168860  17.7235680  12.0336450  20.5806370  31.8198290  10.0885690
  20.5065070  32.7233430  10.3958060  19.6785210  31.5010190  10.0607760
  11.9833660  29.1472880   3.3919310  12.3136670  28.2793940   3.1597950
  12.4124660  29.3531400   4.2224270  12.4723870  30.0143470   6.1300940
  12.0354860  30.1944270   6.9625090  13.0401550  30.7718090   5.9882660
  28.1086050  29.5160470  10.4178250  27.5088040  29.5753030   9.6742170
  28.2379950  28.5765450  10.5475100  12.3048300  22.5263700   2.4889820
  11.6497140  22.2575340   1.8449520  13.1426250  22.4168180   2.0391800
  29.8103930  24.8575870   3.1024090  30.1812760  24.0743190   2.6960060
  30.4505860  25.5464970   2.9241390  26.7937690  26.2412450   8.5154410
  25.9797530  26.6709610   8.7780200  27.2011890  26.8530860   7.9023460
  13.3424230  22.9116270   7.0293160  13.7097270  22.8243670   7.9089180
  12.7735050  22.1482820   6.9300020  28.1428090  21.3800650  10.0423630
  27.9114180  21.1513400   9.1421580  28.4032640  22.3000200   9.9968520
  12.8940230  19.8225360  10.9351580  11.9996280  19.7892120  11.2745290
  13.4337780  20.0212150  11.7002830  26.5816160  16.6057080  12.8203330
  27.4586340  16.6140480  13.2037330  26.5937000  15.8687920  12.2095680
  28.0279430  20.4586620   3.7091350  28.5516910  19.9649270   3.0781520
  28.6138850  20.5936980   4.4538920  28.2069150  20.5426490   7.2310900
  27.2571860  20.5090030   7.3455890  28.3882160  21.4526600   6.9960670
  13.3979940  14.0973690   5.2834800  14.0456130  13.5471070   4.8429960
  13.8181780  14.3516840   6.1050610  28.9466560  18.3520920   2.1821440
  28.8365840  18.1976960   3.1203710  29.7074150  17.8241860   1.9396850
  27.2932280  14.2915050   8.6404440  27.9304500  14.9049190   9.0063630
  27.4407170  14.3275710   7.6953670  13.1511940  14.2529360   8.0260120
  12.8026760  14.7093180   8.7918300  12.8199640  13.3586490   8.1082550
  14.7576310  27.4248960  12.1913310  14.7145940  27.0541870  13.0727770
  14.8887320  28.3626530  12.3315130  18.4582340  28.9808550   7.7923030
  18.2173700  29.2483110   6.9053550  19.3984980  29.1514280   7.8473890
  20.6636760  15.4441240  11.5479540  20.6025650  16.0363070  12.2974950
  21.6037140  15.3367200  11.4029800  23.3011320  15.1011300  11.1871830
  23.9151730  15.4190590  10.5252910  23.8460880  14.6159890  11.8067690
  29.7186500  31.0002930   8.5933670  29.2244780  31.3971800   7.8760800
  29.1099790  30.3752140   8.9870950  13.8232580  13.7805560  11.3010890
  14.3715570  13.5993610  10.5377000  13.8887890  12.9899670  11.8367200
  14.5964340  30.3711210   9.3111090  14.0024660  30.2395910  10.0501130
  14.5888180  29.5349350   8.8453190  24.0419360  13.6643440   7.5141120
  23.1679200  13.9978550   7.3114050  23.9330110  13.1916620   8.3392990
  24.9491340  15.8714310   8.8982840  24.6204700  15.0566070   8.5184570
  25.8973640  15.8284120   8.7748530  27.4025950  31.6426350   5.8720410
  26.9428920  32.3942160   5.4978430  26.7738410  30.9232820   5.8135210
  14.2276570  27.7369590   8.2619130  13.5010630  27.1174880   8.1945080
  14.2885720  28.1310200   7.3917210  17.8321670  29.9514590   5.0468540
  18.3486690  29.3401950   4.5216800  18.4819050  30.4543370   5.5379550
  20.5717170  30.8423080   5.8737520  20.8594980  30.5877380   4.9970530
  21.0840390  30.2900440   6.4643090  21.7894180  14.5813280   6.4534030
  21.0065970  15.0558780   6.7330790  21.4957110  13.6768110   6.3447210
  26.3415250  15.2836380   4.4983120  26.7823340  15.2281480   3.6504720
  26.0722840  16.1994390   4.5693300  28.2053820  14.9151620   2.5091940
  28.1442220  13.9712840   2.3622960  28.9845850  15.0231710   3.0545400
  24.1773380  13.6642480   3.2033130  24.7802750  14.2362690   3.6781650
  23.4366370  14.2281920   2.9807030  20.6389530  31.7639180  13.2405720
  21.5656840  31.5283450  13.2841680  20.6239960  32.5911180  12.7591750
  17.8253140  14.4283930  13.0047600  17.5437410  14.9317530  12.2408420
  18.2072840  13.6305680  12.6389730  24.4268600  13.8437510  13.5828070
  24.3134050  14.1632120  14.4779590  25.2438340  14.2450020  13.2865350
  27.2067090  30.9909040  13.0646760  27.9992410  30.4958270  12.8572720
  27.5000240  31.6699180  13.6722370  23.3326750   3.0886490  77.8180260
  23.2520800   2.1741100  77.5471970  22.9191170   3.5853560  77.1119970
  21.4644790   4.8665510  79.6989530  20.6886890   4.3865950  79.9888100
  22.1157720   4.1871160  79.5245690  15.4810620   5.1785320  80.5765290
  14.6495500   4.9234030  80.9761800  16.0891600   5.2496090  81.3123210
  25.4852220   9.2725700  78.4788660  25.0233750   8.5012940  78.8075830
  26.2977770   9.2991770  78.9841110  15.4611880   9.2125410  80.7723310
  15.7639920   8.3223150  80.5933530  16.2055470   9.7695630  80.5445560
  11.8535580   2.7392860  80.2447380  12.4251690   1.9715060  80.2451020
  11.8537120   3.0381620  79.3353990  21.7115530  11.5583710  78.0992650
  21.0926970  12.0141210  77.5287090  22.5667310  11.7135170  77.6982350
  20.9053780   7.5422700  79.7059690  20.8362060   6.6012640  79.5448820
  21.6673640   7.6324110  80.2782260  22.5778880   6.4422950  75.4924560
  21.9596150   6.9072400  74.9287280  23.0902130   7.1350430  75.9094070
  11.9462080   7.1279480  72.8664190  11.5690060   7.6166580  72.1349090
  12.2035150   7.8004760  73.4970720  27.5707330   9.4019030  81.9011980
  26.8870850  10.0718140  81.8928650  28.1101620   9.5999680  81.1356840
  25.1066070  11.2463160  80.6157160  25.1193230  10.8425450  79.7479420
  24.5541290  12.0210450  80.5118590  26.4011490   7.9679380  75.7047330
  26.2907820   7.0253710  75.8296750  26.3979740   8.3295020  76.5910090
  21.9431770   3.5944700  75.0609820  21.0161050   3.5282080  75.2898290
  22.0956590   4.5324830  74.9465060  28.4513610   4.5480220  82.0356010
  27.6232240   4.6173310  81.5606140  29.0464090   5.1334530  81.5671840
  25.9729060   5.1565000  75.5645070  25.3541480   4.8184550  74.9171370
  25.9553510   4.5124760  76.2724260  17.5488410   4.1209440  77.8429550
  17.1445410   3.4086690  77.3475450  17.6351530   3.7762680  78.7317590
  18.0170110   7.8077000  80.0068760  17.7198400   7.2022470  79.3276540
  18.9669930   7.8454310  79.8958120  24.1493760   4.3951810  72.5717820
  24.5887040   3.5574240  72.4255640  24.8622180   5.0281210  72.6581960
  22.2589140   9.3347880  76.5399060  22.6985050  10.0772210  76.1254450
  22.1976030   9.5774450  77.4638020  14.2493040   3.0154420  75.3436200
  14.1290640   3.7416510  74.7317470  13.9393930   2.2457330  74.8664110
  11.8878410   6.1869560  81.1504840  11.9658830   6.3218330  80.2060560
  12.5020090   5.4785450  81.3432960  13.1326040   7.8869750  77.5611020
  12.7254120   8.0284340  76.7064620  14.0239050   7.6029910  77.3582230
  24.9259320  12.3217000  73.8962070  24.7660460  12.0319940  74.7943900
  24.7606030  11.5457130  73.3607300  17.4047700  12.1015530  75.6733690
  17.2290180  11.1851070  75.4601490  16.5503440  12.4602820  75.9131490
  24.6285450   9.8304560  72.4560070  23.9350610   9.8281850  71.7962350
  25.3708310   9.4063880  72.0254240  24.1935380  11.4567270  76.5308560
  24.6492330  10.6756650  76.8447180  24.5327900  12.1674090  77.0749740
  22.9288690   2.7155720  81.1785830  22.1969810   3.2242530  81.5275930
  22.5313030   1.8985700  80.8774610  18.4407730   2.7023140  71.9728380
  17.8724630   2.2541390  71.3464290  19.1496730   3.0615920  71.4393530
  15.9855210   6.6981330  74.2454790  15.2117470   6.1578950  74.0853510
  16.7149840   6.1787940  73.9072550  26.7443190   5.6946690  80.0381180
  27.4642310   6.1901980  79.6477290  26.5425010   5.0164580  79.3935050
  16.0292610   6.3661710  77.8833600  16.5471280   5.5629970  77.8290490
  15.5776630   6.3040850  78.7250430  20.9162110   7.6327990  73.1560900
  21.2577810   8.3770220  72.6604220  20.0874820   7.9459110  73.5185730
  27.1915790   2.7716140  71.9452590  27.1079510   3.2030360  71.0949030
  27.9109980   3.2314490  72.3779410  28.2203040   9.6258400  74.6734720
  27.5779200   8.9714020  74.9478440  27.8333700  10.0313490  73.8975390
  23.7989520   6.9543830  78.5206410  24.1513340   6.3571960  77.8607780
  22.9151850   6.6288060  78.6914660  19.8852800   7.7141520  75.9276820
  20.5723930   8.2610730  76.3084410  19.0985220   8.2582250  75.9626430
  12.0245200   3.3314340  71.4193900  12.8940050   3.6139140  71.7029820
  11.5335520   4.1450210  71.3042710  19.1880010   4.7187550  75.5402180
  19.6442790   5.5292800  75.7662370  18.8368220   4.4010690  76.3720670
  22.7644700   8.2326240  81.4871930  23.4066930   7.5319400  81.6004100
  23.2894050   9.0124680  81.3068820  26.6100420   8.5174860  71.2111070
  26.3838000   7.8005300  71.8035710  26.2196620   8.2687300  70.3732820
  12.3916450  12.5441720  71.9855530  12.7514090  13.1431060  71.3312800
  12.2508790  13.0901610  72.7590560  26.1916670   6.4346800  72.8725230
  25.9038370   6.8959490  73.6603110  26.9868840   5.9744570  73.1409450
  18.4085070   9.9272920  72.8029200  18.3995170  10.6602610  72.1873710
  17.4883430   9.6804500  72.8956160  14.0091710   5.1487810  73.5475960
  13.4019660   5.8886710  73.5571260  14.4841060   5.2387170  72.7214160
  21.3944670   9.9901160  71.4654390  21.4956650   9.7865150  70.5356370
  20.4946410   9.7359440  71.6702170  20.0362780  12.5087480  76.1602060
  20.2904280  12.4708870  75.2381430  19.0875260  12.3820810  76.1530310
  26.0415360   3.4279360  77.7360570  25.1005500   3.4429590  77.9108260
  26.3559430   2.6415320  78.1820870  16.0197000   5.1098960  71.2964530
  16.7860270   4.9980320  71.8589960  16.0971690   4.4136930  70.6441300
  28.0440940  10.5988210  79.4114830  28.1688360  11.4219380  79.8838640
  28.9106500  10.3878940  79.0638980  15.5158470  12.6919420  79.0831960
  16.2520950  12.1434880  79.3540530  15.8999390  13.5575430  78.9437950
  12.4003950   8.7592990  74.9573470  11.4743730   9.0014130  74.9478880
  12.8660380   9.5867250  74.8358220  18.6260780  11.8649730  70.9057530
  19.4189390  12.1538560  70.4539320  18.1065130  11.4341900  70.2270010
  27.6790950  11.0919860  72.3294270  27.3932460  10.6785000  71.5148450
  27.4810500  12.0207570  72.2094790  19.1438180   7.0853140  70.7699880
  19.0388820   6.4705490  71.4961260  18.9762400   6.5619030  69.9862890
  22.3840910   6.1473170  71.3741870  21.8351010   6.5942470  72.0184610
  23.0060170   5.6422420  71.8979540  18.0516030   5.1064090  73.2707170
  18.4732450   4.9403960  74.1138560  18.1766870   4.2964320  72.7762310
  20.5643670   4.1301700  70.5184270  21.0849330   3.4150720  70.1525420
  21.2112070   4.7687570  70.8184780  21.1291700  12.2113310  72.8086010
  22.0242490  12.5498280  72.8304770  21.1609330  11.4892720  72.1810290
  14.7687860   7.5840360  71.0373010  15.2062730   8.1270030  71.6930590
  15.2535590   6.7587310  71.0469350  11.9833660  10.3729390  78.4893270
  12.3136670   9.5050450  78.2571910  12.4124660  10.5787910  79.3198230
  16.5795580   8.7038400  76.1495240  16.2791120   8.5803370  77.0499150
  16.4733070   7.8446990  75.7410970  29.3487500   8.4834800  70.8521920
  28.5180460   8.5511450  71.3229150  29.5259330   9.3738920  70.5488780
  28.8043960   5.2282280  73.3556120  29.5662870   5.7978930  73.4615810
  28.8198330   4.6609480  74.1264430  12.3048300   3.7520210  77.5863780
  11.6497140   3.4831850  76.9423480  13.1426250   3.6424690  77.1365760
  29.8103930   6.0832380  78.1998050  30.1812760   5.2999700  77.7934020
  30.4505860   6.7721480  78.0215350  28.8563130   5.5216650  70.5128640
  29.1311970   6.4295530  70.3847860  28.6673870   5.4579180  71.4490630
  28.7528470   3.4585640  75.5058070  28.3772070   2.6913570  75.0739360
  28.0231590   3.8408340  75.9933000  26.8513740  12.2187560  77.1396640
  27.4472810  11.8972130  76.4631060  27.1091890  11.7459380  77.9309910
  27.4025950  12.8682860  80.9694370  26.9428920  13.6198670  80.5952390
  26.7738410  12.1489330  80.9109170  17.8321670  11.1771100  80.1442500
  18.3486690  10.5658460  79.6190760  18.4819050  11.6799880  80.6353510
  20.5717170  12.0679590  80.9711480  20.8594980  11.8133890  80.0944490
  21.0840390  11.5156950  81.5617050  12.5106570  12.2800490  76.5689850
  12.3428610  11.6471170  77.2671740  11.6441080  12.4859890  76.2184040
  14.1169270  10.9733720  74.0139990  13.5916890  11.3541750  73.3101950
  14.0413850  11.5984490  74.7349700  28.8734590  12.5321260  75.3353930
  29.0486780  11.8459000  74.6914850  28.1756160  13.0568310  74.9430600
  16.7162240  12.9216100  72.8889240  17.4481060  12.6375380  72.3413130
  16.9755910  12.6829380  73.7788620  15.8777030   9.0380830  72.8935570
  15.2485910   9.5065930  73.4421400  15.9924860   8.1930050  73.3281760
  23.3326750   3.0886490  59.0436770  23.2520800   2.1741100  58.7728480
  22.9191170   3.5853560  58.3376480  21.4644790   4.8665510  60.9246040
  20.6886890   4.3865950  61.2144610  22.1157720   4.1871160  60.7502200
  15.4810620   5.1785320  61.8021800  14.6495500   4.9234030  62.2018310
  16.0891600   5.2496090  62.5379720  25.4852220   9.2725700  59.7045170
  25.0233750   8.5012940  60.0332340  26.2977770   9.2991770  60.2097620
  15.4611880   9.2125410  61.9979820  15.7639920   8.3223150  61.8190040
  16.2055470   9.7695630  61.7702070  11.8535580   2.7392860  61.4703890
  12.4251690   1.9715060  61.4707530  11.8537120   3.0381620  60.5610500
  21.7115530  11.5583710  59.3249160  21.0926970  12.0141210  58.7543600
  22.5667310  11.7135170  58.9238860  20.9053780   7.5422700  60.9316200
  20.8362060   6.6012640  60.7705330  21.6673640   7.6324110  61.5038770
  22.5778880   6.4422950  56.7181070  21.9596150   6.9072400  56.1543790
  23.0902130   7.1350430  57.1350580  17.4410640   5.9698820  63.3964670
  17.1080020   6.5967740  64.0385740  17.6177320   6.4960700  62.6166340
  16.6529740   7.9379620  65.2113850  17.2703740   8.6130700  64.9298300
  15.7922860   8.3467600  65.1201350  11.9462080   7.1279480  54.0920700
  11.5690060   7.6166580  53.3605600  12.2035150   7.8004760  54.7227230
  27.5707330   9.4019030  63.1268490  26.8870850  10.0718140  63.1185160
  28.1101620   9.5999680  62.3613350  25.1066070  11.2463160  61.8413670
  25.1193230  10.8425450  60.9735930  24.5541290  12.0210450  61.7375100
  26.4011490   7.9679380  56.9303840  26.2907820   7.0253710  57.0553260
  26.3979740   8.3295020  57.8166600  24.5051510   6.1493000  63.1696280
  24.9220300   5.9353110  62.3349740  25.2291330   6.4065790  63.7404900
  21.9431770   3.5944700  56.2866330  21.0161050   3.5282080  56.5154800
  22.0956590   4.5324830  56.1721570  28.4513610   4.5480220  63.2612520
  27.6232240   4.6173310  62.7862650  29.0464090   5.1334530  62.7928350
  25.9729060   5.1565000  56.7901580  25.3541480   4.8184550  56.1427880
  25.9553510   4.5124760  57.4980770  17.5488410   4.1209440  59.0686060
  17.1445410   3.4086690  58.5731960  17.6351530   3.7762680  59.9574100
  18.0170110   7.8077000  61.2325270  17.7198400   7.2022470  60.5533050
  18.9669930   7.8454310  61.1214630  26.1055720  11.3808870  64.8948370
  25.6286280  12.1881060  64.7020980  25.4217510  10.7287200  65.0474580
  17.1088540   7.5458690  67.8833070  16.2117070   7.7698660  68.1306470
  17.1341410   7.6693630  66.9344470  24.1493760   4.3951810  53.7974330
  24.5887040   3.5574240  53.6512150  24.8622180   5.0281210  53.8838470
  15.9359760   4.4172010  66.4590440  15.7967530   5.2894810  66.8277840
  15.0541120   4.0744820  66.3138380  22.2589140   9.3347880  57.7655570
  22.6985050  10.0772210  57.3510960  22.1976030   9.5774450  58.6894530
  17.7340110  10.3593710  68.6675590  17.7055540  10.7636660  67.8004020
  17.5705080   9.4304070  68.5047190  14.2493040   3.0154420  56.5692710
  14.1290640   3.7416510  55.9573980  13.9393930   2.2457330  56.0920620
  29.6854930  11.1420810  69.9639760  30.1614650  11.6203700  70.6428840
  30.3062090  11.0738300  69.2385260  11.8878410   6.1869560  62.3761350
  11.9658830   6.3218330  61.4317070  12.5020090   5.4785450  62.5689470
  13.1326040   7.8869750  58.7867530  12.7254120   8.0284340  57.9321130
  14.0239050   7.6029910  58.5838740  29.0888180   8.3333660  67.1239770
  29.2151240   8.0945540  66.2056950  29.1309560   7.5018200  67.5961850
  22.9504920  12.0361660  65.6934580  23.4649590  11.9469670  66.4957010
  22.1074000  12.3821360  65.9862490  24.9259320  12.3217000  55.1218580
  24.7660460  12.0319940  56.0200410  24.7606030  11.5457130  54.5863810
  17.4047700  12.1015530  56.8990200  17.2290180  11.1851070  56.6858000
  16.5503440  12.4602820  57.1388000  24.6285450   9.8304560  53.6816580
  23.9350610   9.8281850  53.0218860  25.3708310   9.4063880  53.2510750
  24.1935380  11.4567270  57.7565070  24.6492330  10.6756650  58.0703690
  24.5327900  12.1674090  58.3006250  11.9437930   7.2283730  64.9155810
  12.1068970   6.7589090  64.0975180  12.4090380   6.7207290  65.5804650
  22.9288690   2.7155720  62.4042340  22.1969810   3.2242530  62.7532440
  22.5313030   1.8985700  62.1031120  18.4407730   2.7023140  53.1984890
  17.8724630   2.2541390  52.5720800  19.1496730   3.0615920  52.6650040
  13.5176910   6.6035160  67.0751620  13.1331700   5.9628830  67.6734580
  13.8289100   7.3071280  67.6446350  19.6674050   3.4511700  62.5560240
  20.0344180   2.9770270  63.3021580  19.4779110   4.3253270  62.8968580
  17.4573420   2.4920340  64.8744450  17.1530490   3.3712320  65.0994810
  18.4119880   2.5520130  64.9101890  15.9855210   6.6981330  55.4711300
  15.2117470   6.1578950  55.3110020  16.7149840   6.1787940  55.1329060
  26.7443190   5.6946690  61.2637690  27.4642310   6.1901980  60.8733800
  26.5425010   5.0164580  60.6191560  22.1261990   5.7655750  67.1506690
  22.0599300   4.8451420  66.8964280  21.4967130   5.8631190  67.8651330
  16.0292610   6.3661710  59.1090110  16.5471280   5.5629970  59.0547000
  15.5776630   6.3040850  59.9506940  20.9162110   7.6327990  54.3817410
  21.2577810   8.3770220  53.8860730  20.0874820   7.9459110  54.7442240
  13.5137150   3.3323080  66.0215810  13.1552090   3.9976930  66.6089150
  13.2191710   2.5006630  66.3928430  16.7150270   3.7907320  68.9055360
  16.4150410   3.9364500  68.0083180  17.4861510   3.2312610  68.8128750
  22.0578720   8.5876320  66.9010490  22.0723260   7.6557280  66.6829400
  21.3503820   8.6736080  67.5400260  28.2689930   5.2283660  66.2479070
  27.5438120   5.8212440  66.0508460  28.7965390   5.2207200  65.4492440
  28.2203040   9.6258400  55.8991230  27.5779200   8.9714020  56.1734950
  27.8333700  10.0313490  55.1231900  23.7989520   6.9543830  59.7462920
  24.1513340   6.3571960  59.0864290  22.9151850   6.6288060  59.9171170
  19.8852800   7.7141520  57.1533330  20.5723930   8.2610730  57.5340920
  19.0985220   8.2582250  57.1882940  12.0245200   3.3314340  52.6450410
  12.8940050   3.6139140  52.9286330  11.5335520   4.1450210  52.5299220
  19.1880010   4.7187550  56.7658690  19.6442790   5.5292800  56.9918880
  18.8368220   4.4010690  57.5977180  21.4912620  10.2293890  63.9950990
  22.1354840  10.4353270  64.6724410  21.8542060   9.4682290  63.5421840
  22.7644700   8.2326240  62.7128440  23.4066930   7.5319400  62.8260610
  23.2894050   9.0124680  62.5325330  26.6100420   8.5174860  52.4367580
  26.3838000   7.8005300  53.0292220  26.2196620   8.2687300  51.5989330
  24.5382320   9.0321140  65.9164500  24.8738560   9.6187830  66.5942420
  23.6182660   8.9013850  66.1462290  12.3916450  12.5441720  53.2112040
  12.7514090  13.1431060  52.5569310  12.2508790  13.0901610  53.9847070
  26.1916670   6.4346800  54.0981740  25.9038370   6.8959490  54.8859620
  26.9868840   5.9744570  54.3665960  12.3758310  10.8096580  67.6854440
  12.4849430   9.8691320  67.5449830  11.7238870  11.0751330  67.0368170
  20.3670900   9.0812470  69.0852560  20.0467770   8.3621710  69.6298250
  19.6929260   9.7567540  69.1588620  18.4085070   9.9272920  54.0285710
  18.3995170  10.6602610  53.4130220  17.4883430   9.6804500  54.1212670
  14.0091710   5.1487810  54.7732470  13.4019660   5.8886710  54.7827770
  14.4841060   5.2387170  53.9470670  21.3944670   9.9901160  52.6910900
  21.4956650   9.7865150  51.7612880  20.4946410   9.7359440  52.8958680
  20.0362780  12.5087480  57.3858570  20.2904280  12.4708870  56.4637940
  19.0875260  12.3820810  57.3786820  26.0415360   3.4279360  58.9617080
  25.1005500   3.4429590  59.1364770  26.3559430   2.6415320  59.4077380
  16.0197000   5.1098960  52.5221040  16.7860270   4.9980320  53.0846470
  16.0971690   4.4136930  51.8697810  28.0440940  10.5988210  60.6371340
  28.1688360  11.4219380  61.1095150  28.9106500  10.3878940  60.2895490
  15.5158470  12.6919420  60.3088470  16.2520950  12.1434880  60.5797040
  15.8999390  13.5575430  60.1694460  12.4003950   8.7592990  56.1829980
  11.4743730   9.0014130  56.1735390  12.8660380   9.5867250  56.0614730
  14.5216750  11.8765490  69.4974050  15.3229480  12.1977540  69.9109450
  14.0068570  11.5161070  70.2193960  18.6260780  11.8649730  52.1314040
  19.4189390  12.1538560  51.6795830  18.1065130  11.4341900  51.4526520
  23.3581380   7.9845360  69.4449460  22.7519540   8.0076960  68.7045210
  23.0535490   7.2528400  69.9816710  24.7881750  11.7125650  68.0558870
  25.7403500  11.6283670  68.0059110  24.6409970  12.3767360  68.7292660
  27.6790950  11.0919860  53.5550780  27.3932460  10.6785000  52.7404960
  27.4810500  12.0207570  53.4351300  12.2414560   4.3638950  68.4410100
  12.7453580   3.7846230  69.0126330  11.5021980   4.6479180  68.9786470
  19.1438180   7.0853140  51.9956390  19.0388820   6.4705490  52.7217770
  18.9762400   6.5619030  51.2119400  19.2952500   5.7709940  67.9745620
  18.5298170   6.3394940  67.8900290  19.4768460   5.4786150  67.0813850
  22.3840910   6.1473170  52.5998380  21.8351010   6.5942470  53.2441120
  23.0060170   5.6422420  53.1236050  26.4375850   7.5015270  68.5320640
  27.1785320   7.8391030  68.0288100  25.6748530   7.6707330  67.9790410
  14.2737640   2.5068540  69.3360170  14.3142980   2.2082410  70.2445400
  15.1283140   2.9076150  69.1767690  18.0516030   5.1064090  54.4963680
  18.4732450   4.9403960  55.3395070  18.1766870   4.2964320  54.0018820
  20.5643670   4.1301700  51.7440780  21.0849330   3.4150720  51.3781930
  21.2112070   4.7687570  52.0441290  25.1121510   5.5530100  67.0675850
  25.5262530   5.7075180  67.9166270  24.1772510   5.6785320  67.2301630
  25.5843680   2.8926260  69.0715000  26.1664450   2.1378580  68.9835480
  25.7605450   3.4233700  68.2946480  19.8736740   5.5050580  65.0371780
  20.2924850   6.3483310  64.8648020  18.9545370   5.6422620  64.8078560
  22.2100640   3.2366760  66.4209620  22.3296850   2.6407900  67.1604460
  23.0694640   3.2736450  66.0010920  24.5488540   3.7903950  64.9972130
  24.0223760   4.3146570  64.3937270  24.8919880   4.4231340  65.6281860
  17.7244160  11.8103590  66.1529510  17.1865250  12.5349650  65.8338210
  17.9778120  11.3333930  65.3626850  20.5806370  13.0454800  66.4116160
  20.5065070  13.9489940  66.7188530  19.6785210  12.7266700  66.3838230
  21.1291700  12.2113310  54.0342520  22.0242490  12.5498280  54.0561280
  21.1609330  11.4892720  53.4066800  14.7687860   7.5840360  52.2629520
  15.2062730   8.1270030  52.9187100  15.2535590   6.7587310  52.2725860
  11.9833660  10.3729390  59.7149780  12.3136670   9.5050450  59.4828420
  12.4124660  10.5787910  60.5454740  16.5795580   8.7038400  57.3751750
  16.2791120   8.5803370  58.2755660  16.4733070   7.8446990  56.9667480
  12.4723870  11.2399980  62.4531410  12.0354860  11.4200780  63.2855560
  13.0401550  11.9974600  62.3113130  28.1086050  10.7416980  66.7408720
  27.5088040  10.8009540  65.9972640  28.2379950   9.8021960  66.8705570
  29.3487500   8.4834800  52.0778430  28.5180460   8.5511450  52.5485660
  29.5259330   9.3738920  51.7745290  28.8043960   5.2282280  54.5812630
  29.5662870   5.7978930  54.6872320  28.8198330   4.6609480  55.3520940
  12.3048300   3.7520210  58.8120290  11.6497140   3.4831850  58.1679990
  13.1426250   3.6424690  58.3622270  29.8103930   6.0832380  59.4254560
  30.1812760   5.2999700  59.0190530  30.4505860   6.7721480  59.2471860
  26.7937690   7.4668960  64.8384880  25.9797530   7.8966120  65.1010670
  27.2011890   8.0787370  64.2253930  28.8563130   5.5216650  51.7385150
  29.1311970   6.4295530  51.6104370  28.6673870   5.4579180  52.6747140
  28.7528470   3.4585640  56.7314580  28.3772070   2.6913570  56.2995870
  28.0231590   3.8408340  57.2189510  13.3424230   4.1372780  63.3523630
  13.7097270   4.0500180  64.2319650  12.7735050   3.3739330  63.2530490
  28.1428090   2.6057160  66.3654100  27.9114180   2.3769910  65.4652050
  28.4032640   3.5256710  66.3198990  28.2069150   1.7683000  63.5541370
  27.2571860   1.7346540  63.6686360  28.3882160   2.6783110  63.3191140
  26.8513740  12.2187560  58.3653150  27.4472810  11.8972130  57.6887570
  27.1091890  11.7459380  59.1566420  14.7576310   8.6505470  68.5143780
  14.7145940   8.2798380  69.3958240  14.8887320   9.5883040  68.6545600
  18.4582340  10.2065060  64.1153500  18.2173700  10.4739620  63.2284020
  19.3984980  10.3770790  64.1704360  29.7186500  12.2259440  64.9164140
  29.2244780  12.6228310  64.1991270  29.1099790  11.6008650  65.3101420
  14.5964340  11.5967720  65.6341560  14.0024660  11.4652420  66.3731600
  14.5888180  10.7605860  65.1683660  27.4025950  12.8682860  62.1950880
  26.9428920  13.6198670  61.8208900  26.7738410  12.1489330  62.1365680
  14.2276570   8.9626100  64.5849600  13.5010630   8.3431390  64.5175550
  14.2885720   9.3566710  63.7147680  17.8321670  11.1771100  61.3699010
  18.3486690  10.5658460  60.8447270  18.4819050  11.6799880  61.8610020
  20.5717170  12.0679590  62.1967990  20.8594980  11.8133890  61.3201000
  21.0840390  11.5156950  62.7873560  12.5106570  12.2800490  57.7946360
  12.3428610  11.6471170  58.4928250  11.6441080  12.4859890  57.4440550
  14.1169270  10.9733720  55.2396500  13.5916890  11.3541750  54.5358460
  14.0413850  11.5984490  55.9606210  20.6389530  12.9895690  69.5636190
  21.5656840  12.7539960  69.6072150  20.6239960  13.8167690  69.0822220
  28.8734590  12.5321260  56.5610440  29.0486780  11.8459000  55.9171360
  28.1756160  13.0568310  56.1687110  16.7162240  12.9216100  54.1145750
  17.4481060  12.6375380  53.5669640  16.9755910  12.6829380  55.0045130
  15.8777030   9.0380830  54.1192080  15.2485910   9.5065930  54.6677910
  15.9924860   8.1930050  54.5538270  27.2067090  12.2165550  69.3877230
  27.9992410  11.7214780  69.1803190  27.5000240  12.8955690  69.9952840
  23.3326750   3.0886490  40.2693280  23.2520800   2.1741100  39.9984990
  22.9191170   3.5853560  39.5632990  21.4644790   4.8665510  42.1502550
  20.6886890   4.3865950  42.4401120  22.1157720   4.1871160  41.9758710
  15.4810620   5.1785320  43.0278310  14.6495500   4.9234030  43.4274820
  16.0891600   5.2496090  43.7636230  25.4852220   9.2725700  40.9301680
  25.0233750   8.5012940  41.2588850  26.2977770   9.2991770  41.4354130
  15.4611880   9.2125410  43.2236330  15.7639920   8.3223150  43.0446550
  16.2055470   9.7695630  42.9958580  11.8535580   2.7392860  42.6960400
  12.4251690   1.9715060  42.6964040  11.8537120   3.0381620  41.7867010
  21.7115530  11.5583710  40.5505670  21.0926970  12.0141210  39.9800110
  22.5667310  11.7135170  40.1495370  20.9053780   7.5422700  42.1572710
  20.8362060   6.6012640  41.9961840  21.6673640   7.6324110  42.7295280
  22.5778880   6.4422950  37.9437580  21.9596150   6.9072400  37.3800300
  23.0902130   7.1350430  38.3607090  17.4410640   5.9698820  44.6221180
  17.1080020   6.5967740  45.2642250  17.6177320   6.4960700  43.8422850
  16.6529740   7.9379620  46.4370360  17.2703740   8.6130700  46.1554810
  15.7922860   8.3467600  46.3457860  11.9462080   7.1279480  35.3177210
  11.5690060   7.6166580  34.5862110  12.2035150   7.8004760  35.9483740
  27.5707330   9.4019030  44.3525000  26.8870850  10.0718140  44.3441670
  28.1101620   9.5999680  43.5869860  25.1066070  11.2463160  43.0670180
  25.1193230  10.8425450  42.1992440  24.5541290  12.0210450  42.9631610
  26.4011490   7.9679380  38.1560350  26.2907820   7.0253710  38.2809770
  26.3979740   8.3295020  39.0423110  24.5051510   6.1493000  44.3952790
  24.9220300   5.9353110  43.5606250  25.2291330   6.4065790  44.9661410
  21.9431770   3.5944700  37.5122840  21.0161050   3.5282080  37.7411310
  22.0956590   4.5324830  37.3978080  28.4513610   4.5480220  44.4869030
  27.6232240   4.6173310  44.0119160  29.0464090   5.1334530  44.0184860
  25.9729060   5.1565000  38.0158090  25.3541480   4.8184550  37.3684390
  25.9553510   4.5124760  38.7237280  17.5488410   4.1209440  40.2942570
  17.1445410   3.4086690  39.7988470  17.6351530   3.7762680  41.1830610
  18.0170110   7.8077000  42.4581780  17.7198400   7.2022470  41.7789560
  18.9669930   7.8454310  42.3471140  26.1055720  11.3808870  46.1204880
  25.6286280  12.1881060  45.9277490  25.4217510  10.7287200  46.2731090
  17.1088540   7.5458690  49.1089580  16.2117070   7.7698660  49.3562980
  17.1341410   7.6693630  48.1600980  24.1493760   4.3951810  35.0230840
  24.5887040   3.5574240  34.8768660  24.8622180   5.0281210  35.1094980
  15.9359760   4.4172010  47.6846950  15.7967530   5.2894810  48.0534350
  15.0541120   4.0744820  47.5394890  22.2589140   9.3347880  38.9912080
  22.6985050  10.0772210  38.5767470  22.1976030   9.5774450  39.9151040
  17.7340110  10.3593710  49.8932100  17.7055540  10.7636660  49.0260530
  17.5705080   9.4304070  49.7303700  14.2493040   3.0154420  37.7949220
  14.1290640   3.7416510  37.1830490  13.9393930   2.2457330  37.3177130
  29.6854930  11.1420810  51.1896270  30.1614650  11.6203700  51.8685350
  30.3062090  11.0738300  50.4641770  11.8878410   6.1869560  43.6017860
  11.9658830   6.3218330  42.6573580  12.5020090   5.4785450  43.7945980
  13.1326040   7.8869750  40.0124040  12.7254120   8.0284340  39.1577640
  14.0239050   7.6029910  39.8095250  29.0888180   8.3333660  48.3496280
  29.2151240   8.0945540  47.4313460  29.1309560   7.5018200  48.8218360
  22.9504920  12.0361660  46.9191090  23.4649590  11.9469670  47.7213520
  22.1074000  12.3821360  47.2119000  24.9259320  12.3217000  36.3475090
  24.7660460  12.0319940  37.2456920  24.7606030  11.5457130  35.8120320
  17.4047700  12.1015530  38.1246710  17.2290180  11.1851070  37.9114510
  16.5503440  12.4602820  38.3644510  24.6285450   9.8304560  34.9073090
  23.9350610   9.8281850  34.2475370  25.3708310   9.4063880  34.4767260
  24.1935380  11.4567270  38.9821580  24.6492330  10.6756650  39.2960200
  24.5327900  12.1674090  39.5262760  11.9437930   7.2283730  46.1412320
  12.1068970   6.7589090  45.3231690  12.4090380   6.7207290  46.8061160
  22.9288690   2.7155720  43.6298850  22.1969810   3.2242530  43.9788950
  22.5313030   1.8985700  43.3287630  18.4407730   2.7023140  34.4241400
  17.8724630   2.2541390  33.7977310  19.1496730   3.0615920  33.8906550
  13.5176910   6.6035160  48.3008130  13.1331700   5.9628830  48.8991090
  13.8289100   7.3071280  48.8702860  19.6674050   3.4511700  43.7816750
  20.0344180   2.9770270  44.5278090  19.4779110   4.3253270  44.1225090
  17.4573420   2.4920340  46.1000960  17.1530490   3.3712320  46.3251320
  18.4119880   2.5520130  46.1358400  15.9855210   6.6981330  36.6967810
  15.2117470   6.1578950  36.5366530  16.7149840   6.1787940  36.3585570
  26.7443190   5.6946690  42.4894200  27.4642310   6.1901980  42.0990310
  26.5425010   5.0164580  41.8448070  22.1261990   5.7655750  48.3763200
  22.0599300   4.8451420  48.1220790  21.4967130   5.8631190  49.0907840
  16.0292610   6.3661710  40.3346620  16.5471280   5.5629970  40.2803510
  15.5776630   6.3040850  41.1763450  20.9162110   7.6327990  35.6073920
  21.2577810   8.3770220  35.1117240  20.0874820   7.9459110  35.9698750
  13.5137150   3.3323080  47.2472320  13.1552090   3.9976930  47.8345660
  13.2191710   2.5006630  47.6184940  16.7150270   3.7907320  50.1311870
  16.4150410   3.9364500  49.2339690  17.4861510   3.2312610  50.0385260
  22.0578720   8.5876320  48.1267000  22.0723260   7.6557280  47.9085910
  21.3503820   8.6736080  48.7656770  27.1915790   2.7716140  34.3965610
  27.1079510   3.2030360  33.5462050  27.9109980   3.2314490  34.8292430
  28.2689930   5.2283660  47.4735580  27.5438120   5.8212440  47.2764970
  28.7965390   5.2207200  46.6748950  28.2203040   9.6258400  37.1247740
  27.5779200   8.9714020  37.3991460  27.8333700  10.0313490  36.3488410
  23.7989520   6.9543830  40.9719430  24.1513340   6.3571960  40.3120800
  22.9151850   6.6288060  41.1427680  19.8852800   7.7141520  38.3789840
  20.5723930   8.2610730  38.7597430  19.0985220   8.2582250  38.4139450
  12.0245200   3.3314340  33.8706920  12.8940050   3.6139140  34.1542840
  11.5335520   4.1450210  33.7555730  19.1880010   4.7187550  37.9915200
  19.6442790   5.5292800  38.2175390  18.8368220   4.4010690  38.8233690
  21.4912620  10.2293890  45.2207500  22.1354840  10.4353270  45.8980920
  21.8542060   9.4682290  44.7678350  22.7644700   8.2326240  43.9384950
  23.4066930   7.5319400  44.0517120  23.2894050   9.0124680  43.7581840
  26.6100420   8.5174860  33.6624090  26.3838000   7.8005300  34.2548730
  26.2196620   8.2687300  32.8245840  24.5382320   9.0321140  47.1421010
  24.8738560   9.6187830  47.8198930  23.6182660   8.9013850  47.3718800
  12.3916450  12.5441720  34.4368550  12.7514090  13.1431060  33.7825820
  12.2508790  13.0901610  35.2103580  26.1916670   6.4346800  35.3238250
  25.9038370   6.8959490  36.1116130  26.9868840   5.9744570  35.5922470
  12.3758310  10.8096580  48.9110950  12.4849430   9.8691320  48.7706340
  11.7238870  11.0751330  48.2624680  20.3670900   9.0812470  50.3109070
  20.0467770   8.3621710  50.8554760  19.6929260   9.7567540  50.3845130
  18.4085070   9.9272920  35.2542220  18.3995170  10.6602610  34.6386730
  17.4883430   9.6804500  35.3469180  14.0091710   5.1487810  35.9988980
  13.4019660   5.8886710  36.0084280  14.4841060   5.2387170  35.1727180
  21.3944670   9.9901160  33.9167410  21.4956650   9.7865150  32.9869390
  20.4946410   9.7359440  34.1215190  20.0362780  12.5087480  38.6115080
  20.2904280  12.4708870  37.6894450  19.0875260  12.3820810  38.6043330
  26.0415360   3.4279360  40.1873590  25.1005500   3.4429590  40.3621280
  26.3559430   2.6415320  40.6333890  16.0197000   5.1098960  33.7477550
  16.7860270   4.9980320  34.3102980  16.0971690   4.4136930  33.0954320
  28.0440940  10.5988210  41.8627850  28.1688360  11.4219380  42.3351660
  28.9106500  10.3878940  41.5152000  15.5158470  12.6919420  41.5344980
  16.2520950  12.1434880  41.8053550  15.8999390  13.5575430  41.3950970
  12.4003950   8.7592990  37.4086490  11.4743730   9.0014130  37.3991900
  12.8660380   9.5867250  37.2871240  14.5216750  11.8765490  50.7230560
  15.3229480  12.1977540  51.1365960  14.0068570  11.5161070  51.4450470
  18.6260780  11.8649730  33.3570550  19.4189390  12.1538560  32.9052340
  18.1065130  11.4341900  32.6783030  23.3581380   7.9845360  50.6705970
  22.7519540   8.0076960  49.9301720  23.0535490   7.2528400  51.2073220
  24.7881750  11.7125650  49.2815380  25.7403500  11.6283670  49.2315620
  24.6409970  12.3767360  49.9549170  27.6790950  11.0919860  34.7807290
  27.3932460  10.6785000  33.9661470  27.4810500  12.0207570  34.6607810
  12.2414560   4.3638950  49.6666610  12.7453580   3.7846230  50.2382840
  11.5021980   4.6479180  50.2042980  19.1438180   7.0853140  33.2212900
  19.0388820   6.4705490  33.9474280  18.9762400   6.5619030  32.4375910
  19.2952500   5.7709940  49.2002130  18.5298170   6.3394940  49.1156800
  19.4768460   5.4786150  48.3070360  22.3840910   6.1473170  33.8254890
  21.8351010   6.5942470  34.4697630  23.0060170   5.6422420  34.3492560
  26.4375850   7.5015270  49.7577150  27.1785320   7.8391030  49.2544610
  25.6748530   7.6707330  49.2046920  14.2737640   2.5068540  50.5616680
  14.3142980   2.2082410  51.4701910  15.1283140   2.9076150  50.4024200
  18.0516030   5.1064090  35.7220190  18.4732450   4.9403960  36.5651580
  18.1766870   4.2964320  35.2275330  20.5643670   4.1301700  32.9697290
  21.0849330   3.4150720  32.6038440  21.2112070   4.7687570  33.2697800
  25.1121510   5.5530100  48.2932360  25.5262530   5.7075180  49.1422780
  24.1772510   5.6785320  48.4558140  25.5843680   2.8926260  50.2971510
  26.1664450   2.1378580  50.2091990  25.7605450   3.4233700  49.5202990
  19.8736740   5.5050580  46.2628290  20.2924850   6.3483310  46.0904530
  18.9545370   5.6422620  46.0335070  22.2100640   3.2366760  47.6466130
  22.3296850   2.6407900  48.3860970  23.0694640   3.2736450  47.2267430
  24.5488540   3.7903950  46.2228640  24.0223760   4.3146570  45.6193780
  24.8919880   4.4231340  46.8538370  17.7244160  11.8103590  47.3786020
  17.1865250  12.5349650  47.0594720  17.9778120  11.3333930  46.5883360
  20.5806370  13.0454800  47.6372670  20.5065070  13.9489940  47.9445040
  19.6785210  12.7266700  47.6094740  21.1291700  12.2113310  35.2599030
  22.0242490  12.5498280  35.2817790  21.1609330  11.4892720  34.6323310
  14.7687860   7.5840360  33.4886030  15.2062730   8.1270030  34.1443610
  15.2535590   6.7587310  33.4982370  11.9833660  10.3729390  40.9406290
  12.3136670   9.5050450  40.7084930  12.4124660  10.5787910  41.7711250
  16.5795580   8.7038400  38.6008260  16.2791120   8.5803370  39.5012170
  16.4733070   7.8446990  38.1923990  12.4723870  11.2399980  43.6787920
  12.0354860  11.4200780  44.5112070  13.0401550  11.9974600  43.5369640
  28.1086050  10.7416980  47.9665230  27.5088040  10.8009540  47.2229150
  28.2379950   9.8021960  48.0962080  29.3487500   8.4834800  33.3034940
  28.5180460   8.5511450  33.7742170  29.5259330   9.3738920  33.0001800
  28.8043960   5.2282280  35.8069140  29.5662870   5.7978930  35.9128830
  28.8198330   4.6609480  36.5777450  12.3048300   3.7520210  40.0376800
  11.6497140   3.4831850  39.3936500  13.1426250   3.6424690  39.5878780
  29.8103930   6.0832380  40.6511070  30.1812760   5.2999700  40.2447040
  30.4505860   6.7721480  40.4728370  26.7937690   7.4668960  46.0641390
  25.9797530   7.8966120  46.3267180  27.2011890   8.0787370  45.4510440
  28.8563130   5.5216650  32.9641660  29.1311970   6.4295530  32.8360880
  28.6673870   5.4579180  33.9003650  28.7528470   3.4585640  37.9571090
  28.3772070   2.6913570  37.5252380  28.0231590   3.8408340  38.4446020
  13.3424230   4.1372780  44.5780140  13.7097270   4.0500180  45.4576160
  12.7735050   3.3739330  44.4787000  28.1428090   2.6057160  47.5910610
  27.9114180   2.3769910  46.6908560  28.4032640   3.5256710  47.5455500
  28.2069150   1.7683000  44.7797880  27.2571860   1.7346540  44.8942870
  28.3882160   2.6783110  44.5447650  26.8513740  12.2187560  39.5909660
  27.4472810  11.8972130  38.9144080  27.1091890  11.7459380  40.3822930
  14.7576310   8.6505470  49.7400290  14.7145940   8.2798380  50.6214750
  14.8887320   9.5883040  49.8802110  18.4582340  10.2065060  45.3410010
  18.2173700  10.4739620  44.4540530  19.3984980  10.3770790  45.3960870
  29.7186500  12.2259440  46.1420650  29.2244780  12.6228310  45.4247780
  29.1099790  11.6008650  46.5357930  14.5964340  11.5967720  46.8598070
  14.0024660  11.4652420  47.5988110  14.5888180  10.7605860  46.3940170
  27.4025950  12.8682860  43.4207390  26.9428920  13.6198670  43.0465410
  26.7738410  12.1489330  43.3622190  14.2276570   8.9626100  45.8106110
  13.5010630   8.3431390  45.7432060  14.2885720   9.3566710  44.9404190
  17.8321670  11.1771100  42.5955520  18.3486690  10.5658460  42.0703780
  18.4819050  11.6799880  43.0866530  20.5717170  12.0679590  43.4224500
  20.8594980  11.8133890  42.5457510  21.0840390  11.5156950  44.0130070
  12.5106570  12.2800490  39.0202870  12.3428610  11.6471170  39.7184760
  11.6441080  12.4859890  38.6697060  14.1169270  10.9733720  36.4653010
  13.5916890  11.3541750  35.7614970  14.0413850  11.5984490  37.1862720
  20.6389530  12.9895690  50.7892700  21.5656840  12.7539960  50.8328660
  20.6239960  13.8167690  50.3078730  28.8734590  12.5321260  37.7866950
  29.0486780  11.8459000  37.1427870  28.1756160  13.0568310  37.3943620
  16.7162240  12.9216100  35.3402260  17.4481060  12.6375380  34.7926150
  16.9755910  12.6829380  36.2301640  15.8777030   9.0380830  35.3448590
  15.2485910   9.5065930  35.8934420  15.9924860   8.1930050  35.7794780
  27.2067090  12.2165550  50.6133740  27.9992410  11.7214780  50.4059700
  27.5000240  12.8955690  51.2209350  23.3326750   3.0886490  21.4949790
  23.2520800   2.1741100  21.2241500  22.9191170   3.5853560  20.7889500
  21.4644790   4.8665510  23.3759060  20.6886890   4.3865950  23.6657630
  22.1157720   4.1871160  23.2015220  15.4810620   5.1785320  24.2534820
  14.6495500   4.9234030  24.6531330  16.0891600   5.2496090  24.9892740
  25.4852220   9.2725700  22.1558190  25.0233750   8.5012940  22.4845360
  26.2977770   9.2991770  22.6610640  15.4611880   9.2125410  24.4492840
  15.7639920   8.3223150  24.2703060  16.2055470   9.7695630  24.2215090
  11.8535580   2.7392860  23.9216910  12.4251690   1.9715060  23.9220550
  11.8537120   3.0381620  23.0123520  21.7115530  11.5583710  21.7762180
  21.0926970  12.0141210  21.2056620  22.5667310  11.7135170  21.3751880
  20.9053780   7.5422700  23.3829220  20.8362060   6.6012640  23.2218350
  21.6673640   7.6324110  23.9551790  22.5778880   6.4422950  19.1694090
  21.9596150   6.9072400  18.6056810  23.0902130   7.1350430  19.5863600
  17.4410640   5.9698820  25.8477690  17.1080020   6.5967740  26.4898760
  17.6177320   6.4960700  25.0679360  16.6529740   7.9379620  27.6626870
  17.2703740   8.6130700  27.3811320  15.7922860   8.3467600  27.5714370
  11.9462080   7.1279480  16.5433720  11.5690060   7.6166580  15.8118620
  12.2035150   7.8004760  17.1740250  27.5707330   9.4019030  25.5781510
  26.8870850  10.0718140  25.5698180  28.1101620   9.5999680  24.8126370
  25.1066070  11.2463160  24.2926690  25.1193230  10.8425450  23.4248950
  24.5541290  12.0210450  24.1888120  26.4011490   7.9679380  19.3816860
  26.2907820   7.0253710  19.5066280  26.3979740   8.3295020  20.2679620
  24.5051510   6.1493000  25.6209300  24.9220300   5.9353110  24.7862760
  25.2291330   6.4065790  26.1917920  21.9431770   3.5944700  18.7379350
  21.0161050   3.5282080  18.9667820  22.0956590   4.5324830  18.6234590
  28.4513610   4.5480220  25.7125540  27.6232240   4.6173310  25.2375670
  29.0464090   5.1334530  25.2441370  25.9729060   5.1565000  19.2414600
  25.3541480   4.8184550  18.5940900  25.9553510   4.5124760  19.9493790
  17.5488410   4.1209440  21.5199080  17.1445410   3.4086690  21.0244980
  17.6351530   3.7762680  22.4087120  18.0170110   7.8077000  23.6838290
  17.7198400   7.2022470  23.0046070  18.9669930   7.8454310  23.5727650
  26.1055720  11.3808870  27.3461390  25.6286280  12.1881060  27.1534000
  25.4217510  10.7287200  27.4987600  17.1088540   7.5458690  30.3346090
  16.2117070   7.7698660  30.5819490  17.1341410   7.6693630  29.3857490
  24.1493760   4.3951810  16.2487350  24.5887040   3.5574240  16.1025170
  24.8622180   5.0281210  16.3351490  15.9359760   4.4172010  28.9103460
  15.7967530   5.2894810  29.2790860  15.0541120   4.0744820  28.7651400
  22.2589140   9.3347880  20.2168590  22.6985050  10.0772210  19.8023980
  22.1976030   9.5774450  21.1407550  17.7340110  10.3593710  31.1188610
  17.7055540  10.7636660  30.2517040  17.5705080   9.4304070  30.9560210
  14.2493040   3.0154420  19.0205730  14.1290640   3.7416510  18.4087000
  13.9393930   2.2457330  18.5433640  29.6854930  11.1420810  32.4152780
  30.1614650  11.6203700  33.0941860  30.3062090  11.0738300  31.6898280
  11.8878410   6.1869560  24.8274370  11.9658830   6.3218330  23.8830090
  12.5020090   5.4785450  25.0202490  13.1326040   7.8869750  21.2380550
  12.7254120   8.0284340  20.3834150  14.0239050   7.6029910  21.0351760
  29.0888180   8.3333660  29.5752790  29.2151240   8.0945540  28.6569970
  29.1309560   7.5018200  30.0474870  22.9504920  12.0361660  28.1447600
  23.4649590  11.9469670  28.9470030  22.1074000  12.3821360  28.4375510
  24.9259320  12.3217000  17.5731600  24.7660460  12.0319940  18.4713430
  24.7606030  11.5457130  17.0376830  17.4047700  12.1015530  19.3503220
  17.2290180  11.1851070  19.1371020  16.5503440  12.4602820  19.5901020
  24.6285450   9.8304560  16.1329600  23.9350610   9.8281850  15.4731880
  25.3708310   9.4063880  15.7023770  24.1935380  11.4567270  20.2078090
  24.6492330  10.6756650  20.5216710  24.5327900  12.1674090  20.7519270
  11.9437930   7.2283730  27.3668830  12.1068970   6.7589090  26.5488200
  12.4090380   6.7207290  28.0317670  22.9288690   2.7155720  24.8555360
  22.1969810   3.2242530  25.2045460  22.5313030   1.8985700  24.5544140
  18.4407730   2.7023140  15.6497910  17.8724630   2.2541390  15.0233820
  19.1496730   3.0615920  15.1163060  13.5176910   6.6035160  29.5264640
  13.1331700   5.9628830  30.1247600  13.8289100   7.3071280  30.0959370
  19.6674050   3.4511700  25.0073260  20.0344180   2.9770270  25.7534600
  19.4779110   4.3253270  25.3481600  17.4573420   2.4920340  27.3257470
  17.1530490   3.3712320  27.5507830  18.4119880   2.5520130  27.3614910
  15.9855210   6.6981330  17.9224320  15.2117470   6.1578950  17.7623040
  16.7149840   6.1787940  17.5842080  26.7443190   5.6946690  23.7150710
  27.4642310   6.1901980  23.3246820  26.5425010   5.0164580  23.0704580
  22.1261990   5.7655750  29.6019710  22.0599300   4.8451420  29.3477300
  21.4967130   5.8631190  30.3164350  16.0292610   6.3661710  21.5603130
  16.5471280   5.5629970  21.5060020  15.5776630   6.3040850  22.4019960
  20.9162110   7.6327990  16.8330430  21.2577810   8.3770220  16.3373750
  20.0874820   7.9459110  17.1955260  13.5137150   3.3323080  28.4728830
  13.1552090   3.9976930  29.0602170  13.2191710   2.5006630  28.8441450
  16.7150270   3.7907320  31.3568380  16.4150410   3.9364500  30.4596200
  17.4861510   3.2312610  31.2641770  22.0578720   8.5876320  29.3523510
  22.0723260   7.6557280  29.1342420  21.3503820   8.6736080  29.9913280
  27.1915790   2.7716140  15.6222120  27.1079510   3.2030360  14.7718560
  27.9109980   3.2314490  16.0548940  28.2689930   5.2283660  28.6992090
  27.5438120   5.8212440  28.5021480  28.7965390   5.2207200  27.9005460
  28.2203040   9.6258400  18.3504250  27.5779200   8.9714020  18.6247970
  27.8333700  10.0313490  17.5744920  23.7989520   6.9543830  22.1975940
  24.1513340   6.3571960  21.5377310  22.9151850   6.6288060  22.3684190
  19.8852800   7.7141520  19.6046350  20.5723930   8.2610730  19.9853940
  19.0985220   8.2582250  19.6395960  12.0245200   3.3314340  15.0963430
  12.8940050   3.6139140  15.3799350  11.5335520   4.1450210  14.9812240
  19.1880010   4.7187550  19.2171710  19.6442790   5.5292800  19.4431900
  18.8368220   4.4010690  20.0490200  21.4912620  10.2293890  26.4464010
  22.1354840  10.4353270  27.1237430  21.8542060   9.4682290  25.9934860
  22.7644700   8.2326240  25.1641460  23.4066930   7.5319400  25.2773630
  23.2894050   9.0124680  24.9838350  26.6100420   8.5174860  14.8880600
  26.3838000   7.8005300  15.4805240  26.2196620   8.2687300  14.0502350
  24.5382320   9.0321140  28.3677520  24.8738560   9.6187830  29.0455440
  23.6182660   8.9013850  28.5975310  12.3916450  12.5441720  15.6625060
  12.7514090  13.1431060  15.0082330  12.2508790  13.0901610  16.4360090
  26.1916670   6.4346800  16.5494760  25.9038370   6.8959490  17.3372640
  26.9868840   5.9744570  16.8178980  12.3758310  10.8096580  30.1367460
  12.4849430   9.8691320  29.9962850  11.7238870  11.0751330  29.4881190
  20.3670900   9.0812470  31.5365580  20.0467770   8.3621710  32.0811270
  19.6929260   9.7567540  31.6101640  18.4085070   9.9272920  16.4798730
  18.3995170  10.6602610  15.8643240  17.4883430   9.6804500  16.5725690
  14.0091710   5.1487810  17.2245490  13.4019660   5.8886710  17.2340790
  14.4841060   5.2387170  16.3983690  21.3944670   9.9901160  15.1423920
  21.4956650   9.7865150  14.2125900  20.4946410   9.7359440  15.3471700
  20.0362780  12.5087480  19.8371590  20.2904280  12.4708870  18.9150960
  19.0875260  12.3820810  19.8299840  26.0415360   3.4279360  21.4130100
  25.1005500   3.4429590  21.5877790  26.3559430   2.6415320  21.8590400
  16.0197000   5.1098960  14.9734060  16.7860270   4.9980320  15.5359490
  16.0971690   4.4136930  14.3210830  28.0440940  10.5988210  23.0884360
  28.1688360  11.4219380  23.5608170  28.9106500  10.3878940  22.7408510
  15.5158470  12.6919420  22.7601490  16.2520950  12.1434880  23.0310060
  15.8999390  13.5575430  22.6207480  12.4003950   8.7592990  18.6343000
  11.4743730   9.0014130  18.6248410  12.8660380   9.5867250  18.5127750
  14.5216750  11.8765490  31.9487070  15.3229480  12.1977540  32.3622470
  14.0068570  11.5161070  32.6706980  18.6260780  11.8649730  14.5827060
  19.4189390  12.1538560  14.1308850  18.1065130  11.4341900  13.9039540
  23.3581380   7.9845360  31.8962480  22.7519540   8.0076960  31.1558230
  23.0535490   7.2528400  32.4329730  24.7881750  11.7125650  30.5071890
  25.7403500  11.6283670  30.4572130  24.6409970  12.3767360  31.1805680
  27.6790950  11.0919860  16.0063800  27.3932460  10.6785000  15.1917980
  27.4810500  12.0207570  15.8864320  12.2414560   4.3638950  30.8923120
  12.7453580   3.7846230  31.4639350  11.5021980   4.6479180  31.4299490
  19.1438180   7.0853140  14.4469410  19.0388820   6.4705490  15.1730790
  18.9762400   6.5619030  13.6632420  19.2952500   5.7709940  30.4258640
  18.5298170   6.3394940  30.3413310  19.4768460   5.4786150  29.5326870
  22.3840910   6.1473170  15.0511400  21.8351010   6.5942470  15.6954140
  23.0060170   5.6422420  15.5749070  26.4375850   7.5015270  30.9833660
  27.1785320   7.8391030  30.4801120  25.6748530   7.6707330  30.4303430
  14.2737640   2.5068540  31.7873190  14.3142980   2.2082410  32.6958420
  15.1283140   2.9076150  31.6280710  18.0516030   5.1064090  16.9476700
  18.4732450   4.9403960  17.7908090  18.1766870   4.2964320  16.4531840
  20.5643670   4.1301700  14.1953800  21.0849330   3.4150720  13.8294950
  21.2112070   4.7687570  14.4954310  25.1121510   5.5530100  29.5188870
  25.5262530   5.7075180  30.3679290  24.1772510   5.6785320  29.6814650
  25.5843680   2.8926260  31.5228020  26.1664450   2.1378580  31.4348500
  25.7605450   3.4233700  30.7459500  19.8736740   5.5050580  27.4884800
  20.2924850   6.3483310  27.3161040  18.9545370   5.6422620  27.2591580
  22.2100640   3.2366760  28.8722640  22.3296850   2.6407900  29.6117480
  23.0694640   3.2736450  28.4523940  24.5488540   3.7903950  27.4485150
  24.0223760   4.3146570  26.8450290  24.8919880   4.4231340  28.0794880
  17.7244160  11.8103590  28.6042530  17.1865250  12.5349650  28.2851230
  17.9778120  11.3333930  27.8139870  20.5806370  13.0454800  28.8629180
  20.5065070  13.9489940  29.1701550  19.6785210  12.7266700  28.8351250
  21.1291700  12.2113310  16.4855540  22.0242490  12.5498280  16.5074300
  21.1609330  11.4892720  15.8579820  14.7687860   7.5840360  14.7142540
  15.2062730   8.1270030  15.3700120  15.2535590   6.7587310  14.7238880
  11.9833660  10.3729390  22.1662800  12.3136670   9.5050450  21.9341440
  12.4124660  10.5787910  22.9967760  16.5795580   8.7038400  19.8264770
  16.2791120   8.5803370  20.7268680  16.4733070   7.8446990  19.4180500
  12.4723870  11.2399980  24.9044430  12.0354860  11.4200780  25.7368580
  13.0401550  11.9974600  24.7626150  28.1086050  10.7416980  29.1921740
  27.5088040  10.8009540  28.4485660  28.2379950   9.8021960  29.3218590
  29.3487500   8.4834800  14.5291450  28.5180460   8.5511450  14.9998680
  29.5259330   9.3738920  14.2258310  28.8043960   5.2282280  17.0325650
  29.5662870   5.7978930  17.1385340  28.8198330   4.6609480  17.8033960
  12.3048300   3.7520210  21.2633310  11.6497140   3.4831850  20.6193010
  13.1426250   3.6424690  20.8135290  29.8103930   6.0832380  21.8767580
  30.1812760   5.2999700  21.4703550  30.4505860   6.7721480  21.6984880
  26.7937690   7.4668960  27.2897900  25.9797530   7.8966120  27.5523690
  27.2011890   8.0787370  26.6766950  28.8563130   5.5216650  14.1898170
  29.1311970   6.4295530  14.0617390  28.6673870   5.4579180  15.1260160
  28.7528470   3.4585640  19.1827600  28.3772070   2.6913570  18.7508890
  28.0231590   3.8408340  19.6702530  13.3424230   4.1372780  25.8036650
  13.7097270   4.0500180  26.6832670  12.7735050   3.3739330  25.7043510
  28.1428090   2.6057160  28.8167120  27.9114180   2.3769910  27.9165070
  28.4032640   3.5256710  28.7712010  28.2069150   1.7683000  26.0054390
  27.2571860   1.7346540  26.1199380  28.3882160   2.6783110  25.7704160
  26.8513740  12.2187560  20.8166170  27.4472810  11.8972130  20.1400590
  27.1091890  11.7459380  21.6079440  14.7576310   8.6505470  30.9656800
  14.7145940   8.2798380  31.8471260  14.8887320   9.5883040  31.1058620
  18.4582340  10.2065060  26.5666520  18.2173700  10.4739620  25.6797040
  19.3984980  10.3770790  26.6217380  29.7186500  12.2259440  27.3677160
  29.2244780  12.6228310  26.6504290  29.1099790  11.6008650  27.7614440
  14.5964340  11.5967720  28.0854580  14.0024660  11.4652420  28.8244620
  14.5888180  10.7605860  27.6196680  27.4025950  12.8682860  24.6463900
  26.9428920  13.6198670  24.2721920  26.7738410  12.1489330  24.5878700
  14.2276570   8.9626100  27.0362620  13.5010630   8.3431390  26.9688570
  14.2885720   9.3566710  26.1660700  17.8321670  11.1771100  23.8212030
  18.3486690  10.5658460  23.2960290  18.4819050  11.6799880  24.3123040
  20.5717170  12.0679590  24.6481010  20.8594980  11.8133890  23.7714020
  21.0840390  11.5156950  25.2386580  12.5106570  12.2800490  20.2459380
  12.3428610  11.6471170  20.9441270  11.6441080  12.4859890  19.8953570
  14.1169270  10.9733720  17.6909520  13.5916890  11.3541750  16.9871480
  14.0413850  11.5984490  18.4119230  20.6389530  12.9895690  32.0149210
  21.5656840  12.7539960  32.0585170  20.6239960  13.8167690  31.5335240
  28.8734590  12.5321260  19.0123460  29.0486780  11.8459000  18.3684380
  28.1756160  13.0568310  18.6200130  16.7162240  12.9216100  16.5658770
  17.4481060  12.6375380  16.0182660  16.9755910  12.6829380  17.4558150
  15.8777030   9.0380830  16.5705100  15.2485910   9.5065930  17.1190930
  15.9924860   8.1930050  17.0051290  27.2067090  12.2165550  31.8390250
  27.9992410  11.7214780  31.6316210  27.5000240  12.8955690  32.4465860
  23.3326750   3.0886490   2.7206300  23.2520800   2.1741100   2.4498010
  22.9191170   3.5853560   2.0146010  21.4644790   4.8665510   4.6015570
  20.6886890   4.3865950   4.8914140  22.1157720   4.1871160   4.4271730
  15.4810620   5.1785320   5.4791330  14.6495500   4.9234030   5.8787840
  16.0891600   5.2496090   6.2149250  25.4852220   9.2725700   3.3814700
  25.0233750   8.5012940   3.7101870  26.2977770   9.2991770   3.8867150
  15.4611880   9.2125410   5.6749350  15.7639920   8.3223150   5.4959570
  16.2055470   9.7695630   5.4471600  11.8535580   2.7392860   5.1473420
  12.4251690   1.9715060   5.1477060  11.8537120   3.0381620   4.2380030
  21.7115530  11.5583710   3.0018690  21.0926970  12.0141210   2.4313130
  22.5667310  11.7135170   2.6008390  20.9053780   7.5422700   4.6085730
  20.8362060   6.6012640   4.4474860  21.6673640   7.6324110   5.1808300
  17.4410640   5.9698820   7.0734200  17.1080020   6.5967740   7.7155270
  17.6177320   6.4960700   6.2935870  16.6529740   7.9379620   8.8883380
  17.2703740   8.6130700   8.6067830  15.7922860   8.3467600   8.7970880
  27.5707330   9.4019030   6.8038020  26.8870850  10.0718140   6.7954690
  28.1101620   9.5999680   6.0382880  25.1066070  11.2463160   5.5183200
  25.1193230  10.8425450   4.6505460  24.5541290  12.0210450   5.4144630
  24.5051510   6.1493000   6.8465810  24.9220300   5.9353110   6.0119270
  25.2291330   6.4065790   7.4174430  28.4513610   4.5480220   6.9382050
  27.6232240   4.6173310   6.4632180  29.0464090   5.1334530   6.4697880
  17.5488410   4.1209440   2.7455590  17.1445410   3.4086690   2.2501490
  17.6351530   3.7762680   3.6343630  18.0170110   7.8077000   4.9094800
  17.7198400   7.2022470   4.2302580  18.9669930   7.8454310   4.7984160
  26.1055720  11.3808870   8.5717900  25.6286280  12.1881060   8.3790510
  25.4217510  10.7287200   8.7244110  17.1088540   7.5458690  11.5602600
  16.2117070   7.7698660  11.8076000  17.1341410   7.6693630  10.6114000
  15.9359760   4.4172010  10.1359970  15.7967530   5.2894810  10.5047370
  15.0541120   4.0744820   9.9907910  17.7340110  10.3593710  12.3445120
  17.7055540  10.7636660  11.4773550  17.5705080   9.4304070  12.1816720
  29.6854930  11.1420810  13.6409290  30.1614650  11.6203700  14.3198370
  30.3062090  11.0738300  12.9154790  11.8878410   6.1869560   6.0530880
  11.9658830   6.3218330   5.1086600  12.5020090   5.4785450   6.2459000
  29.0888180   8.3333660  10.8009300  29.2151240   8.0945540   9.8826480
  29.1309560   7.5018200  11.2731380  22.9504920  12.0361660   9.3704110
  23.4649590  11.9469670  10.1726540  22.1074000  12.3821360   9.6632020
  11.9437930   7.2283730   8.5925340  12.1068970   6.7589090   7.7744710
  12.4090380   6.7207290   9.2574180  22.9288690   2.7155720   6.0811870
  22.1969810   3.2242530   6.4301970  22.5313030   1.8985700   5.7800650
  13.5176910   6.6035160  10.7521150  13.1331700   5.9628830  11.3504110
  13.8289100   7.3071280  11.3215880  19.6674050   3.4511700   6.2329770
  20.0344180   2.9770270   6.9791110  19.4779110   4.3253270   6.5738110
  17.4573420   2.4920340   8.5513980  17.1530490   3.3712320   8.7764340
  18.4119880   2.5520130   8.5871420  26.7443190   5.6946690   4.9407220
  27.4642310   6.1901980   4.5503330  26.5425010   5.0164580   4.2961090
  22.1261990   5.7655750  10.8276220  22.0599300   4.8451420  10.5733810
  21.4967130   5.8631190  11.5420860  16.0292610   6.3661710   2.7859640
  16.5471280   5.5629970   2.7316530  15.5776630   6.3040850   3.6276470
  13.5137150   3.3323080   9.6985340  13.1552090   3.9976930  10.2858680
  13.2191710   2.5006630  10.0697960  16.7150270   3.7907320  12.5824890
  16.4150410   3.9364500  11.6852710  17.4861510   3.2312610  12.4898280
  22.0578720   8.5876320  10.5780020  22.0723260   7.6557280  10.3598930
  21.3503820   8.6736080  11.2169790  28.2689930   5.2283660   9.9248600
  27.5438120   5.8212440   9.7277990  28.7965390   5.2207200   9.1261970
  23.7989520   6.9543830   3.4232450  24.1513340   6.3571960   2.7633820
  22.9151850   6.6288060   3.5940700  21.4912620  10.2293890   7.6720520
  22.1354840  10.4353270   8.3493940  21.8542060   9.4682290   7.2191370
  22.7644700   8.2326240   6.3897970  23.4066930   7.5319400   6.5030140
  23.2894050   9.0124680   6.2094860  24.5382320   9.0321140   9.5934030
  24.8738560   9.6187830  10.2711950  23.6182660   8.9013850   9.8231820
  12.3758310  10.8096580  11.3623970  12.4849430   9.8691320  11.2219360
  11.7238870  11.0751330  10.7137700  20.3670900   9.0812470  12.7622090
  20.0467770   8.3621710  13.3067780  19.6929260   9.7567540  12.8358150
  26.0415360   3.4279360   2.6386610  25.1005500   3.4429590   2.8134300
  26.3559430   2.6415320   3.0846910  28.0440940  10.5988210   4.3140870
  28.1688360  11.4219380   4.7864680  28.9106500  10.3878940   3.9665020
  15.5158470  12.6919420   3.9858000  16.2520950  12.1434880   4.2566570
  15.8999390  13.5575430   3.8463990  14.5216750  11.8765490  13.1743580
  15.3229480  12.1977540  13.5878980  14.0068570  11.5161070  13.8963490
  23.3581380   7.9845360  13.1218990  22.7519540   8.0076960  12.3814740
  23.0535490   7.2528400  13.6586240  24.7881750  11.7125650  11.7328400
  25.7403500  11.6283670  11.6828640  24.6409970  12.3767360  12.4062190
  12.2414560   4.3638950  12.1179630  12.7453580   3.7846230  12.6895860
  11.5021980   4.6479180  12.6556000  19.2952500   5.7709940  11.6515150
  18.5298170   6.3394940  11.5669820  19.4768460   5.4786150  10.7583380
  26.4375850   7.5015270  12.2090170  27.1785320   7.8391030  11.7057630
  25.6748530   7.6707330  11.6559940  14.2737640   2.5068540  13.0129700
  14.3142980   2.2082410  13.9214930  15.1283140   2.9076150  12.8537220
  25.1121510   5.5530100  10.7445380  25.5262530   5.7075180  11.5935800
  24.1772510   5.6785320  10.9071160  25.5843680   2.8926260  12.7484530
  26.1664450   2.1378580  12.6605010  25.7605450   3.4233700  11.9716010
  19.8736740   5.5050580   8.7141310  20.2924850   6.3483310   8.5417550
  18.9545370   5.6422620   8.4848090  22.2100640   3.2366760  10.0979150
  22.3296850   2.6407900  10.8373990  23.0694640   3.2736450   9.6780450
  24.5488540   3.7903950   8.6741660  24.0223760   4.3146570   8.0706800
  24.8919880   4.4231340   9.3051390  17.7244160  11.8103590   9.8299040
  17.1865250  12.5349650   9.5107740  17.9778120  11.3333930   9.0396380
  20.5806370  13.0454800  10.0885690  20.5065070  13.9489940  10.3958060
  19.6785210  12.7266700  10.0607760  11.9833660  10.3729390   3.3919310
  12.3136670   9.5050450   3.1597950  12.4124660  10.5787910   4.2224270
  12.4723870  11.2399980   6.1300940  12.0354860  11.4200780   6.9625090
  13.0401550  11.9974600   5.9882660  28.1086050  10.7416980  10.4178250
  27.5088040  10.8009540   9.6742170  28.2379950   9.8021960  10.5475100
  12.3048300   3.7520210   2.4889820  11.6497140   3.4831850   1.8449520
  13.1426250   3.6424690   2.0391800  29.8103930   6.0832380   3.1024090
  30.1812760   5.2999700   2.6960060  30.4505860   6.7721480   2.9241390
  26.7937690   7.4668960   8.5154410  25.9797530   7.8966120   8.7780200
  27.2011890   8.0787370   7.9023460  13.3424230   4.1372780   7.0293160
  13.7097270   4.0500180   7.9089180  12.7735050   3.3739330   6.9300020
  28.1428090   2.6057160  10.0423630  27.9114180   2.3769910   9.1421580
  28.4032640   3.5256710   9.9968520  28.2069150   1.7683000   7.2310900
  27.2571860   1.7346540   7.3455890  28.3882160   2.6783110   6.9960670
  14.7576310   8.6505470  12.1913310  14.7145940   8.2798380  13.0727770
  14.8887320   9.5883040  12.3315130  18.4582340  10.2065060   7.7923030
  18.2173700  10.4739620   6.9053550  19.3984980  10.3770790   7.8473890
  29.7186500  12.2259440   8.5933670  29.2244780  12.6228310   7.8760800
  29.1099790  11.6008650   8.9870950  14.5964340  11.5967720   9.3111090
  14.0024660  11.4652420  10.0501130  14.5888180  10.7605860   8.8453190
  27.4025950  12.8682860   5.8720410  26.9428920  13.6198670   5.4978430
  26.7738410  12.1489330   5.8135210  14.2276570   8.9626100   8.2619130
  13.5010630   8.3431390   8.1945080  14.2885720   9.3566710   7.3917210
  17.8321670  11.1771100   5.0468540  18.3486690  10.5658460   4.5216800
  18.4819050  11.6799880   5.5379550  20.5717170  12.0679590   5.8737520
  20.8594980  11.8133890   4.9970530  21.0840390  11.5156950   6.4643090
  20.6389530  12.9895690  13.2405720  21.5656840  12.7539960  13.2841680
  20.6239960  13.8167690  12.7591750  27.2067090  12.2165550  13.0646760
  27.9992410  11.7214780  12.8572720  27.5000240  12.8955690  13.6722370
   4.5583260  78.1860450  77.8180260   4.4777310  77.2715060  77.5471970
   4.1447680  78.6827520  77.1119970   2.6901300  79.9639470  79.6989530
   1.9143400  79.4839910  79.9888100   3.3414230  79.2845120  79.5245690
   3.1615460  75.4467040  79.9328620   3.5380280  74.5738920  79.8202290
   3.0634970  75.7825740  79.0419060   6.9439580  72.9417480  76.8656960
   7.7649200  72.4514050  76.9082440   6.9773660  73.5315140  77.6188800
   7.1801060  74.8817860  79.6384500   6.4756630  75.1702750  80.2187610
   7.5413220  75.6917970  79.2784060  10.2487980  74.3272650  80.0293710
   9.3012890  74.3611630  80.1609140  10.5737970  75.1411600  80.4143070
   3.1688280  78.6918660  75.0609820   2.2417560  78.6256040  75.2898290
   3.3213100  79.6298790  74.9465060   3.1557360  74.9635660  72.0576980
   2.2161030  75.1249620  72.1429440   3.4740620  75.6821340  71.5112970
   9.6770120  79.6454180  82.0356010   8.8488750  79.7147270  81.5606140
  10.2720600  80.2308490  81.5671840   7.1985570  80.2538960  75.5645070
   6.5797990  79.9158510  74.9171370   7.1810020  79.6098720  76.2724260
   5.3750270  79.4925770  72.5717820   5.8143550  78.6548200  72.4255640
   6.0878690  80.1255170  72.6581960   8.9567410  70.7468580  70.8858860
   8.6440070  70.8395410  71.7857930   9.7179880  71.3249610  70.8356290
   4.9625190  76.5860390  75.0531770   4.3634080  77.3096190  74.8695390
   5.5104800  76.5237170  74.2708220   3.5690060  75.2223930  77.0835050
   3.9619630  75.5396130  76.2703740   3.9306910  74.3435810  77.1979570
   4.1545200  77.8129680  81.1785830   3.4226320  78.3216490  81.5275930
   3.7569540  76.9959660  80.8774610   4.6171110  73.2663360  80.5908770
   4.6343850  73.7172010  81.4350620   4.3686690  72.3669000  80.8042210
   3.4309640  72.1858610  74.1810570   2.6174250  71.6871780  74.1055880
   3.2371590  73.0256860  73.7646920   6.1458030  76.5578260  72.4772730
   7.0337650  76.8695490  72.3024070   6.1163120  75.6850510  72.0853310
   8.4172300  77.8690100  71.9452590   8.3336020  78.3004320  71.0949030
   9.1366490  78.3288450  72.3779410   8.1743040  73.3669530  74.0320410
   7.5456200  73.4715200  73.3178640   7.6794960  73.5866310  74.8214290
   4.1742500  72.3706140  76.8874080   4.0510280  72.3892270  75.9383590
   5.1227060  72.4185080  77.0072480   7.2671870  78.5253320  77.7360570
   6.3262010  78.5403550  77.9108260   7.5815940  77.7389280  78.1820870
   1.7900180  79.2275660  70.5184270   2.3105840  78.5124680  70.1525420
   2.4368580  79.8661530  70.8184780   5.6519750  71.0879510  72.7452210
   5.9322040  70.2447410  73.1011630   4.8785480  71.3202620  73.2590960
  10.0300470  80.3256240  73.3556120  10.7919380  80.8952890  73.4615810
  10.0454840  79.7583440  74.1264430   6.4795250  73.6435460  71.8082270
   6.8980130  73.4566440  70.9678930   6.1731310  72.7914510  72.1185200
   9.9784980  78.5559600  75.5058070   9.6028580  77.7887530  75.0739360
   9.2488100  78.9382300  75.9933000   9.2535940  76.7817090  78.8065310
   9.7773420  76.2879740  78.1755480   9.8395360  76.9167450  79.5512880
   8.7435910  76.0390440  74.7457720   9.2395030  75.8061310  75.5306600
   8.5451980  75.2002280  74.3295360  10.1723070  74.6751390  77.2795400
  10.0622350  74.5207430  78.2177670  10.9330660  74.1472330  77.0370810
  11.0613340  72.5059310  70.5201540  11.9862650  72.3740490  70.3119830
  11.0389130  72.5852130  71.4737990  11.1351830  73.2769970  73.1458250
  10.3403330  73.2115090  73.6751160  11.3395110  74.2120610  73.1343600
   3.0150690  70.9043750  81.5507990   2.2322480  71.3789250  81.8304750
   2.7213620  69.9998580  81.4421170   7.5671760  71.6066850  79.5957080
   8.0079850  71.5511950  78.7478680   7.2979350  72.5224860  79.6667260
   9.4310330  71.2382090  77.6065900   9.3698730  70.2943310  77.4596920
  10.2102360  71.3462180  78.1519360   5.4029890  69.9872950  78.3007090
   6.0059260  70.5593160  78.7755610   4.6622880  70.5512390  78.0780990
   8.5464490  70.3894510  73.5747370   8.7415120  71.2877960  73.8414800
   7.7594360  70.1581590  74.0680320   4.5583260  78.1860450  59.0436770
   4.4777310  77.2715060  58.7728480   4.1447680  78.6827520  58.3376480
   2.6901300  79.9639470  60.9246040   1.9143400  79.4839910  61.2144610
   3.3414230  79.2845120  60.7502200   3.1615460  75.4467040  61.1585130
   3.5380280  74.5738920  61.0458800   3.0634970  75.7825740  60.2675570
   6.9439580  72.9417480  58.0913470   7.7649200  72.4514050  58.1338950
   6.9773660  73.5315140  58.8445310  11.2339130  74.9584230  64.6557100
  10.5291300  75.3465940  64.1372210  11.4997050  75.6534520  65.2578030
   7.1801060  74.8817860  60.8641010   6.4756630  75.1702750  61.4444120
   7.5413220  75.6917970  60.5040570  10.2487980  74.3272650  61.2550220
   9.3012890  74.3611630  61.3865650  10.5737970  75.1411600  61.6399580
   3.1688280  78.6918660  56.2866330   2.2417560  78.6256040  56.5154800
   3.3213100  79.6298790  56.1721570   3.1557360  74.9635660  53.2833490
   2.2161030  75.1249620  53.3685950   3.4740620  75.6821340  52.7369480
   9.6770120  79.6454180  63.2612520   8.8488750  79.7147270  62.7862650
  10.2720600  80.2308490  62.7928350   7.1985570  80.2538960  56.7901580
   6.5797990  79.9158510  56.1427880   7.1810020  79.6098720  57.4980770
   6.6412130  76.4323500  64.2067390   6.2283310  77.2577210  64.4607380
   5.9088080  75.8468540  64.0143750   5.3750270  79.4925770  53.7974330
   5.8143550  78.6548200  53.6512150   6.0878690  80.1255170  53.8838470
   8.9567410  70.7468580  52.1115370   8.6440070  70.8395410  53.0114440
   9.7179880  71.3249610  52.0612800  10.1668700  75.4840080  68.0889510
   9.5512970  75.9919750  67.5604970   9.8465120  74.5838410  68.0315450
   2.2283020  74.3231970  65.5551700   1.7662390  74.5314990  66.3671640
   1.8261130  73.5091320  65.2522370   7.2287530  75.5440920  66.6848360
   6.3781120  75.2446670  67.0057430   7.0689320  75.7882930  65.7732180
   4.3237240  77.0442670  68.7847150   4.6490650  76.2106420  68.4449380
   5.1117570  77.5671190  68.9325480   4.9625190  76.5860390  56.2788280
   4.3634080  77.3096190  56.0951900   5.5104800  76.5237170  55.4964730
   3.5690060  75.2223930  58.3091560   3.9619630  75.5396130  57.4960250
   3.9306910  74.3435810  58.4236080   4.1545200  77.8129680  62.4042340
   3.4226320  78.3216490  62.7532440   3.7569540  76.9959660  62.1031120
   4.6171110  73.2663360  61.8165280   4.6343850  73.7172010  62.6607130
   4.3686690  72.3669000  62.0298720   8.0441860  70.6795540  67.6551660
   8.3687630  69.9485200  68.1809640   8.0798370  70.3609180  66.7532650
   3.4309640  72.1858610  55.4067080   2.6174250  71.6871780  55.3312390
   3.2371590  73.0256860  54.9903430   3.3518500  80.8629710  67.1506690
   3.2855810  79.9425380  66.8964280   2.7223640  80.9605150  67.8651330
   6.1458030  76.5578260  53.7029240   7.0337650  76.8695490  53.5280580
   6.1163120  75.6850510  53.3109820   8.4172300  77.8690100  53.1709100
   8.3336020  78.3004320  52.3205540   9.1366490  78.3288450  53.6035920
   9.4946440  80.3257620  66.2479070   8.7694630  80.9186400  66.0508460
  10.0221900  80.3181160  65.4492440   4.8081010  74.4112590  64.4489360
   5.1761830  73.5907800  64.7768930   3.9479210  74.4714480  64.8645010
   8.1743040  73.3669530  55.2576920   7.5456200  73.4715200  54.5435150
   7.6794960  73.5866310  56.0470800   1.7683000  77.0652180  64.6727330
   2.2668250  77.5398000  65.3379180   1.9105950  76.1415700  64.8797360
   4.1742500  72.3706140  58.1130590   4.0510280  72.3892270  57.1640100
   5.1227060  72.4185080  58.2328990   8.9749860  73.2820140  65.5155720
   8.4723460  74.0225540  65.8549530   9.7906520  73.6704140  65.1992510
   7.2671870  78.5253320  58.9617080   6.3262010  78.5403550  59.1364770
   7.5815940  77.7389280  59.4077380   1.7900180  79.2275660  51.7440780
   2.3105840  78.5124680  51.3781930   2.4368580  79.8661530  52.0441290
   6.3378020  80.6504060  67.0675850   6.7519040  80.8049140  67.9166270
   5.4029020  80.7759280  67.2301630   6.8100190  77.9900220  69.0715000
   7.3920960  77.2352540  68.9835480   6.9861960  78.5207660  68.2946480
   3.4357150  78.3340720  66.4209620   3.5553360  77.7381860  67.1604460
   4.2951150  78.3710410  66.0010920   5.7745050  78.8877910  64.9972130
   5.2480270  79.4120530  64.3937270   6.1176390  79.5205300  65.6281860
   5.0219350  74.4927880  67.9118460   4.3334870  73.8309420  67.8468450
   5.7425370  74.0466150  68.3566920   5.6519750  71.0879510  53.9708720
   5.9322040  70.2447410  54.3268140   4.8785480  71.3202620  54.4847470
  10.0300470  80.3256240  54.5812630  10.7919380  80.8952890  54.6872320
  10.0454840  79.7583440  55.3520940   6.4795250  73.6435460  53.0338780
   6.8980130  73.4566440  52.1935440   6.1731310  72.7914510  53.3441710
   9.9784980  78.5559600  56.7314580   9.6028580  77.7887530  56.2995870
   9.2488100  78.9382300  57.2189510   9.3684600  77.7031120  66.3654100
   9.1370690  77.4743870  65.4652050   9.6289150  78.6230670  66.3198990
   7.8072670  72.9287550  69.1433800   8.6842850  72.9370950  69.5267800
   7.8193510  72.1918390  68.5326150   9.2535940  76.7817090  60.0321820
   9.7773420  76.2879740  59.4011990   9.8395360  76.9167450  60.7769390
   9.4325660  76.8656960  63.5541370   8.4828370  76.8320500  63.6686360
   9.6138670  77.7757070  63.3191140   8.7435910  76.0390440  55.9714230
   9.2395030  75.8061310  56.7563110   8.5451980  75.2002280  55.5551870
  10.1723070  74.6751390  58.5051910  10.0622350  74.5207430  59.4434180
  10.9330660  74.1472330  58.2627320   8.5188790  70.6145520  64.9634910
   9.1561010  71.2279660  65.3294100   8.6663680  70.6506180  64.0184140
  11.0613340  72.5059310  51.7458050  11.9862650  72.3740490  51.5376340
  11.0389130  72.5852130  52.6994500  11.1351830  73.2769970  54.3714760
  10.3403330  73.2115090  54.9007670  11.3395110  74.2120610  54.3600110
   1.8893270  71.7671710  67.8710010   1.8282160  72.3593540  68.6205420
   2.8293650  71.6597670  67.7260270   4.5267830  71.4241770  67.5102300
   5.1408240  71.7421060  66.8483380   5.0717390  70.9390360  68.1298160
   5.2675870  69.9873910  63.8371590   4.3935710  70.3209020  63.6344520
   5.1586620  69.5147090  64.6623460   6.1747850  72.1944780  65.2213310
   5.8461210  71.3796540  64.8415040   7.1230150  72.1514590  65.0979000
   3.0150690  70.9043750  62.7764500   2.2322480  71.3789250  63.0561260
   2.7213620  69.9998580  62.6677680   7.5671760  71.6066850  60.8213590
   8.0079850  71.5511950  59.9735190   7.2979350  72.5224860  60.8923770
   9.4310330  71.2382090  58.8322410   9.3698730  70.2943310  58.6853430
  10.2102360  71.3462180  59.3775870   5.4029890  69.9872950  59.5263600
   6.0059260  70.5593160  60.0012120   4.6622880  70.5512390  59.3037500
   8.5464490  70.3894510  54.8003880   8.7415120  71.2877960  55.0671310
   7.7594360  70.1581590  55.2936830   5.6525110  70.1667980  69.9058540
   5.5390560  70.4862590  70.8010060   6.4694850  70.5680490  69.6095820
   4.5583260  78.1860450  40.2693280   4.4777310  77.2715060  39.9984990
   4.1447680  78.6827520  39.5632990   2.6901300  79.9639470  42.1502550
   1.9143400  79.4839910  42.4401120   3.3414230  79.2845120  41.9758710
   3.1615460  75.4467040  42.3841640   3.5380280  74.5738920  42.2715310
   3.0634970  75.7825740  41.4932080   6.9439580  72.9417480  39.3169980
   7.7649200  72.4514050  39.3595460   6.9773660  73.5315140  40.0701820
  11.2339130  74.9584230  45.8813610  10.5291300  75.3465940  45.3628720
  11.4997050  75.6534520  46.4834540   7.1801060  74.8817860  42.0897520
   6.4756630  75.1702750  42.6700630   7.5413220  75.6917970  41.7297080
  10.2487980  74.3272650  42.4806730   9.3012890  74.3611630  42.6122160
  10.5737970  75.1411600  42.8656090   3.1688280  78.6918660  37.5122840
   2.2417560  78.6256040  37.7411310   3.3213100  79.6298790  37.3978080
   3.1557360  74.9635660  34.5090000   2.2161030  75.1249620  34.5942460
   3.4740620  75.6821340  33.9625990   9.6770120  79.6454180  44.4869030
   8.8488750  79.7147270  44.0119160  10.2720600  80.2308490  44.0184860
   7.1985570  80.2538960  38.0158090   6.5797990  79.9158510  37.3684390
   7.1810020  79.6098720  38.7237280   6.6412130  76.4323500  45.4323900
   6.2283310  77.2577210  45.6863890   5.9088080  75.8468540  45.2400260
   5.3750270  79.4925770  35.0230840   5.8143550  78.6548200  34.8768660
   6.0878690  80.1255170  35.1094980   8.9567410  70.7468580  33.3371880
   8.6440070  70.8395410  34.2370950   9.7179880  71.3249610  33.2869310
  10.1668700  75.4840080  49.3146020   9.5512970  75.9919750  48.7861480
   9.8465120  74.5838410  49.2571960   2.2283020  74.3231970  46.7808210
   1.7662390  74.5314990  47.5928150   1.8261130  73.5091320  46.4778880
   7.2287530  75.5440920  47.9104870   6.3781120  75.2446670  48.2313940
   7.0689320  75.7882930  46.9988690   4.3237240  77.0442670  50.0103660
   4.6490650  76.2106420  49.6705890   5.1117570  77.5671190  50.1581990
   4.9625190  76.5860390  37.5044790   4.3634080  77.3096190  37.3208410
   5.5104800  76.5237170  36.7221240   3.5690060  75.2223930  39.5348070
   3.9619630  75.5396130  38.7216760   3.9306910  74.3435810  39.6492590
   4.1545200  77.8129680  43.6298850   3.4226320  78.3216490  43.9788950
   3.7569540  76.9959660  43.3287630   4.6171110  73.2663360  43.0421790
   4.6343850  73.7172010  43.8863640   4.3686690  72.3669000  43.2555230
   8.0441860  70.6795540  48.8808170   8.3687630  69.9485200  49.4066150
   8.0798370  70.3609180  47.9789160   3.4309640  72.1858610  36.6323590
   2.6174250  71.6871780  36.5568900   3.2371590  73.0256860  36.2159940
   3.3518500  80.8629710  48.3763200   3.2855810  79.9425380  48.1220790
   2.7223640  80.9605150  49.0907840   6.1458030  76.5578260  34.9285750
   7.0337650  76.8695490  34.7537090   6.1163120  75.6850510  34.5366330
   8.4172300  77.8690100  34.3965610   8.3336020  78.3004320  33.5462050
   9.1366490  78.3288450  34.8292430   9.4946440  80.3257620  47.4735580
   8.7694630  80.9186400  47.2764970  10.0221900  80.3181160  46.6748950
   4.8081010  74.4112590  45.6745870   5.1761830  73.5907800  46.0025440
   3.9479210  74.4714480  46.0901520   8.1743040  73.3669530  36.4833430
   7.5456200  73.4715200  35.7691660   7.6794960  73.5866310  37.2727310
   1.7683000  77.0652180  45.8983840   2.2668250  77.5398000  46.5635690
   1.9105950  76.1415700  46.1053870   4.1742500  72.3706140  39.3387100
   4.0510280  72.3892270  38.3896610   5.1227060  72.4185080  39.4585500
   8.9749860  73.2820140  46.7412230   8.4723460  74.0225540  47.0806040
   9.7906520  73.6704140  46.4249020   7.2671870  78.5253320  40.1873590
   6.3262010  78.5403550  40.3621280   7.5815940  77.7389280  40.6333890
   1.7900180  79.2275660  32.9697290   2.3105840  78.5124680  32.6038440
   2.4368580  79.8661530  33.2697800   6.3378020  80.6504060  48.2932360
   6.7519040  80.8049140  49.1422780   5.4029020  80.7759280  48.4558140
   6.8100190  77.9900220  50.2971510   7.3920960  77.2352540  50.2091990
   6.9861960  78.5207660  49.5202990   3.4357150  78.3340720  47.6466130
   3.5553360  77.7381860  48.3860970   4.2951150  78.3710410  47.2267430
   5.7745050  78.8877910  46.2228640   5.2480270  79.4120530  45.6193780
   6.1176390  79.5205300  46.8538370   5.0219350  74.4927880  49.1374970
   4.3334870  73.8309420  49.0724960   5.7425370  74.0466150  49.5823430
   5.6519750  71.0879510  35.1965230   5.9322040  70.2447410  35.5524650
   4.8785480  71.3202620  35.7103980  10.0300470  80.3256240  35.8069140
  10.7919380  80.8952890  35.9128830  10.0454840  79.7583440  36.5777450
   6.4795250  73.6435460  34.2595290   6.8980130  73.4566440  33.4191950
   6.1731310  72.7914510  34.5698220   9.9784980  78.5559600  37.9571090
   9.6028580  77.7887530  37.5252380   9.2488100  78.9382300  38.4446020
   9.3684600  77.7031120  47.5910610   9.1370690  77.4743870  46.6908560
   9.6289150  78.6230670  47.5455500   7.8072670  72.9287550  50.3690310
   8.6842850  72.9370950  50.7524310   7.8193510  72.1918390  49.7582660
   9.2535940  76.7817090  41.2578330   9.7773420  76.2879740  40.6268500
   9.8395360  76.9167450  42.0025900   9.4325660  76.8656960  44.7797880
   8.4828370  76.8320500  44.8942870   9.6138670  77.7757070  44.5447650
   8.7435910  76.0390440  37.1970740   9.2395030  75.8061310  37.9819620
   8.5451980  75.2002280  36.7808380  10.1723070  74.6751390  39.7308420
  10.0622350  74.5207430  40.6690690  10.9330660  74.1472330  39.4883830
   8.5188790  70.6145520  46.1891420   9.1561010  71.2279660  46.5550610
   8.6663680  70.6506180  45.2440650  11.0613340  72.5059310  32.9714560
  11.9862650  72.3740490  32.7632850  11.0389130  72.5852130  33.9251010
  11.1351830  73.2769970  35.5971270  10.3403330  73.2115090  36.1264180
  11.3395110  74.2120610  35.5856620   1.8893270  71.7671710  49.0966520
   1.8282160  72.3593540  49.8461930   2.8293650  71.6597670  48.9516780
   4.5267830  71.4241770  48.7358810   5.1408240  71.7421060  48.0739890
   5.0717390  70.9390360  49.3554670   5.2675870  69.9873910  45.0628100
   4.3935710  70.3209020  44.8601030   5.1586620  69.5147090  45.8879970
   6.1747850  72.1944780  46.4469820   5.8461210  71.3796540  46.0671550
   7.1230150  72.1514590  46.3235510   3.0150690  70.9043750  44.0021010
   2.2322480  71.3789250  44.2817770   2.7213620  69.9998580  43.8934190
   7.5671760  71.6066850  42.0470100   8.0079850  71.5511950  41.1991700
   7.2979350  72.5224860  42.1180280   9.4310330  71.2382090  40.0578920
   9.3698730  70.2943310  39.9109940  10.2102360  71.3462180  40.6032380
   5.4029890  69.9872950  40.7520110   6.0059260  70.5593160  41.2268630
   4.6622880  70.5512390  40.5294010   8.5464490  70.3894510  36.0260390
   8.7415120  71.2877960  36.2927820   7.7594360  70.1581590  36.5193340
   5.6525110  70.1667980  51.1315050   5.5390560  70.4862590  52.0266570
   6.4694850  70.5680490  50.8352330   4.5583260  78.1860450  21.4949790
   4.4777310  77.2715060  21.2241500   4.1447680  78.6827520  20.7889500
   2.6901300  79.9639470  23.3759060   1.9143400  79.4839910  23.6657630
   3.3414230  79.2845120  23.2015220   3.1615460  75.4467040  23.6098150
   3.5380280  74.5738920  23.4971820   3.0634970  75.7825740  22.7188590
   6.9439580  72.9417480  20.5426490   7.7649200  72.4514050  20.5851970
   6.9773660  73.5315140  21.2958330  11.2339130  74.9584230  27.1070120
  10.5291300  75.3465940  26.5885230  11.4997050  75.6534520  27.7091050
   7.1801060  74.8817860  23.3154030   6.4756630  75.1702750  23.8957140
   7.5413220  75.6917970  22.9553590  10.2487980  74.3272650  23.7063240
   9.3012890  74.3611630  23.8378670  10.5737970  75.1411600  24.0912600
   3.1688280  78.6918660  18.7379350   2.2417560  78.6256040  18.9667820
   3.3213100  79.6298790  18.6234590   3.1557360  74.9635660  15.7346510
   2.2161030  75.1249620  15.8198970   3.4740620  75.6821340  15.1882500
   9.6770120  79.6454180  25.7125540   8.8488750  79.7147270  25.2375670
  10.2720600  80.2308490  25.2441370   7.1985570  80.2538960  19.2414600
   6.5797990  79.9158510  18.5940900   7.1810020  79.6098720  19.9493790
   6.6412130  76.4323500  26.6580410   6.2283310  77.2577210  26.9120400
   5.9088080  75.8468540  26.4656770   5.3750270  79.4925770  16.2487350
   5.8143550  78.6548200  16.1025170   6.0878690  80.1255170  16.3351490
   8.9567410  70.7468580  14.5628390   8.6440070  70.8395410  15.4627460
   9.7179880  71.3249610  14.5125820  10.1668700  75.4840080  30.5402530
   9.5512970  75.9919750  30.0117990   9.8465120  74.5838410  30.4828470
   2.2283020  74.3231970  28.0064720   1.7662390  74.5314990  28.8184660
   1.8261130  73.5091320  27.7035390   7.2287530  75.5440920  29.1361380
   6.3781120  75.2446670  29.4570450   7.0689320  75.7882930  28.2245200
   4.3237240  77.0442670  31.2360170   4.6490650  76.2106420  30.8962400
   5.1117570  77.5671190  31.3838500   4.9625190  76.5860390  18.7301300
   4.3634080  77.3096190  18.5464920   5.5104800  76.5237170  17.9477750
   3.5690060  75.2223930  20.7604580   3.9619630  75.5396130  19.9473270
   3.9306910  74.3435810  20.8749100   4.1545200  77.8129680  24.8555360
   3.4226320  78.3216490  25.2045460   3.7569540  76.9959660  24.5544140
   4.6171110  73.2663360  24.2678300   4.6343850  73.7172010  25.1120150
   4.3686690  72.3669000  24.4811740   8.0441860  70.6795540  30.1064680
   8.3687630  69.9485200  30.6322660   8.0798370  70.3609180  29.2045670
   3.4309640  72.1858610  17.8580100   2.6174250  71.6871780  17.7825410
   3.2371590  73.0256860  17.4416450   3.3518500  80.8629710  29.6019710
   3.2855810  79.9425380  29.3477300   2.7223640  80.9605150  30.3164350
   6.1458030  76.5578260  16.1542260   7.0337650  76.8695490  15.9793600
   6.1163120  75.6850510  15.7622840   8.4172300  77.8690100  15.6222120
   8.3336020  78.3004320  14.7718560   9.1366490  78.3288450  16.0548940
   9.4946440  80.3257620  28.6992090   8.7694630  80.9186400  28.5021480
  10.0221900  80.3181160  27.9005460   4.8081010  74.4112590  26.9002380
   5.1761830  73.5907800  27.2281950   3.9479210  74.4714480  27.3158030
   8.1743040  73.3669530  17.7089940   7.5456200  73.4715200  16.9948170
   7.6794960  73.5866310  18.4983820   1.7683000  77.0652180  27.1240350
   2.2668250  77.5398000  27.7892200   1.9105950  76.1415700  27.3310380
   4.1742500  72.3706140  20.5643610   4.0510280  72.3892270  19.6153120
   5.1227060  72.4185080  20.6842010   8.9749860  73.2820140  27.9668740
   8.4723460  74.0225540  28.3062550   9.7906520  73.6704140  27.6505530
   7.2671870  78.5253320  21.4130100   6.3262010  78.5403550  21.5877790
   7.5815940  77.7389280  21.8590400   1.7900180  79.2275660  14.1953800
   2.3105840  78.5124680  13.8294950   2.4368580  79.8661530  14.4954310
   6.3378020  80.6504060  29.5188870   6.7519040  80.8049140  30.3679290
   5.4029020  80.7759280  29.6814650   6.8100190  77.9900220  31.5228020
   7.3920960  77.2352540  31.4348500   6.9861960  78.5207660  30.7459500
   3.4357150  78.3340720  28.8722640   3.5553360  77.7381860  29.6117480
   4.2951150  78.3710410  28.4523940   5.7745050  78.8877910  27.4485150
   5.2480270  79.4120530  26.8450290   6.1176390  79.5205300  28.0794880
   5.0219350  74.4927880  30.3631480   4.3334870  73.8309420  30.2981470
   5.7425370  74.0466150  30.8079940   5.6519750  71.0879510  16.4221740
   5.9322040  70.2447410  16.7781160   4.8785480  71.3202620  16.9360490
  10.0300470  80.3256240  17.0325650  10.7919380  80.8952890  17.1385340
  10.0454840  79.7583440  17.8033960   6.4795250  73.6435460  15.4851800
   6.8980130  73.4566440  14.6448460   6.1731310  72.7914510  15.7954730
   9.9784980  78.5559600  19.1827600   9.6028580  77.7887530  18.7508890
   9.2488100  78.9382300  19.6702530   9.3684600  77.7031120  28.8167120
   9.1370690  77.4743870  27.9165070   9.6289150  78.6230670  28.7712010
   7.8072670  72.9287550  31.5946820   8.6842850  72.9370950  31.9780820
   7.8193510  72.1918390  30.9839170   9.2535940  76.7817090  22.4834840
   9.7773420  76.2879740  21.8525010   9.8395360  76.9167450  23.2282410
   9.4325660  76.8656960  26.0054390   8.4828370  76.8320500  26.1199380
   9.6138670  77.7757070  25.7704160   8.7435910  76.0390440  18.4227250
   9.2395030  75.8061310  19.2076130   8.5451980  75.2002280  18.0064890
  10.1723070  74.6751390  20.9564930  10.0622350  74.5207430  21.8947200
  10.9330660  74.1472330  20.7140340   8.5188790  70.6145520  27.4147930
   9.1561010  71.2279660  27.7807120   8.6663680  70.6506180  26.4697160
  11.0613340  72.5059310  14.1971070  11.9862650  72.3740490  13.9889360
  11.0389130  72.5852130  15.1507520  11.1351830  73.2769970  16.8227780
  10.3403330  73.2115090  17.3520690  11.3395110  74.2120610  16.8113130
   1.8893270  71.7671710  30.3223030   1.8282160  72.3593540  31.0718440
   2.8293650  71.6597670  30.1773290   4.5267830  71.4241770  29.9615320
   5.1408240  71.7421060  29.2996400   5.0717390  70.9390360  30.5811180
   5.2675870  69.9873910  26.2884610   4.3935710  70.3209020  26.0857540
   5.1586620  69.5147090  27.1136480   6.1747850  72.1944780  27.6726330
   5.8461210  71.3796540  27.2928060   7.1230150  72.1514590  27.5492020
   3.0150690  70.9043750  25.2277520   2.2322480  71.3789250  25.5074280
   2.7213620  69.9998580  25.1190700   7.5671760  71.6066850  23.2726610
   8.0079850  71.5511950  22.4248210   7.2979350  72.5224860  23.3436790
   9.4310330  71.2382090  21.2835430   9.3698730  70.2943310  21.1366450
  10.2102360  71.3462180  21.8288890   5.4029890  69.9872950  21.9776620
   6.0059260  70.5593160  22.4525140   4.6622880  70.5512390  21.7550520
   8.5464490  70.3894510  17.2516900   8.7415120  71.2877960  17.5184330
   7.7594360  70.1581590  17.7449850   5.6525110  70.1667980  32.3571560
   5.5390560  70.4862590  33.2523080   6.4694850  70.5680490  32.0608840
   4.5583260  78.1860450   2.7206300   4.4777310  77.2715060   2.4498010
   4.1447680  78.6827520   2.0146010   2.6901300  79.9639470   4.6015570
   1.9143400  79.4839910   4.8914140   3.3414230  79.2845120   4.4271730
   3.1615460  75.4467040   4.8354660   3.5380280  74.5738920   4.7228330
   3.0634970  75.7825740   3.9445100   6.9439580  72.9417480   1.7683000
   7.7649200  72.4514050   1.8108480   6.9773660  73.5315140   2.5214840
  11.2339130  74.9584230   8.3326630  10.5291300  75.3465940   7.8141740
  11.4997050  75.6534520   8.9347560   7.1801060  74.8817860   4.5410540
   6.4756630  75.1702750   5.1213650   7.5413220  75.6917970   4.1810100
  10.2487980  74.3272650   4.9319750   9.3012890  74.3611630   5.0635180
  10.5737970  75.1411600   5.3169110   9.6770120  79.6454180   6.9382050
   8.8488750  79.7147270   6.4632180  10.2720600  80.2308490   6.4697880
   6.6412130  76.4323500   7.8836920   6.2283310  77.2577210   8.1376910
   5.9088080  75.8468540   7.6913280  10.1668700  75.4840080  11.7659040
   9.5512970  75.9919750  11.2374500   9.8465120  74.5838410  11.7084980
   2.2283020  74.3231970   9.2321230   1.7662390  74.5314990  10.0441170
   1.8261130  73.5091320   8.9291900   7.2287530  75.5440920  10.3617890
   6.3781120  75.2446670  10.6826960   7.0689320  75.7882930   9.4501710
   4.3237240  77.0442670  12.4616680   4.6490650  76.2106420  12.1218910
   5.1117570  77.5671190  12.6095010   4.1545200  77.8129680   6.0811870
   3.4226320  78.3216490   6.4301970   3.7569540  76.9959660   5.7800650
   4.6171110  73.2663360   5.4934810   4.6343850  73.7172010   6.3376660
   4.3686690  72.3669000   5.7068250   8.0441860  70.6795540  11.3321190
   8.3687630  69.9485200  11.8579170   8.0798370  70.3609180  10.4302180
   3.3518500  80.8629710  10.8276220   3.2855810  79.9425380  10.5733810
   2.7223640  80.9605150  11.5420860   9.4946440  80.3257620   9.9248600
   8.7694630  80.9186400   9.7277990  10.0221900  80.3181160   9.1261970
   4.8081010  74.4112590   8.1258890   5.1761830  73.5907800   8.4538460
   3.9479210  74.4714480   8.5414540   1.7683000  77.0652180   8.3496860
   2.2668250  77.5398000   9.0148710   1.9105950  76.1415700   8.5566890
   8.9749860  73.2820140   9.1925250   8.4723460  74.0225540   9.5319060
   9.7906520  73.6704140   8.8762040   7.2671870  78.5253320   2.6386610
   6.3262010  78.5403550   2.8134300   7.5815940  77.7389280   3.0846910
   6.3378020  80.6504060  10.7445380   6.7519040  80.8049140  11.5935800
   5.4029020  80.7759280  10.9071160   6.8100190  77.9900220  12.7484530
   7.3920960  77.2352540  12.6605010   6.9861960  78.5207660  11.9716010
   3.4357150  78.3340720  10.0979150   3.5553360  77.7381860  10.8373990
   4.2951150  78.3710410   9.6780450   5.7745050  78.8877910   8.6741660
   5.2480270  79.4120530   8.0706800   6.1176390  79.5205300   9.3051390
   5.0219350  74.4927880  11.5887990   4.3334870  73.8309420  11.5237980
   5.7425370  74.0466150  12.0336450   9.3684600  77.7031120  10.0423630
   9.1370690  77.4743870   9.1421580   9.6289150  78.6230670   9.9968520
   7.8072670  72.9287550  12.8203330   8.6842850  72.9370950  13.2037330
   7.8193510  72.1918390  12.2095680   9.2535940  76.7817090   3.7091350
   9.7773420  76.2879740   3.0781520   9.8395360  76.9167450   4.4538920
   9.4325660  76.8656960   7.2310900   8.4828370  76.8320500   7.3455890
   9.6138670  77.7757070   6.9960670  10.1723070  74.6751390   2.1821440
  10.0622350  74.5207430   3.1203710  10.9330660  74.1472330   1.9396850
   8.5188790  70.6145520   8.6404440   9.1561010  71.2279660   9.0063630
   8.6663680  70.6506180   7.6953670   1.8893270  71.7671710  11.5479540
   1.8282160  72.3593540  12.2974950   2.8293650  71.6597670  11.4029800
   4.5267830  71.4241770  11.1871830   5.1408240  71.7421060  10.5252910
   5.0717390  70.9390360  11.8067690   5.2675870  69.9873910   7.5141120
   4.3935710  70.3209020   7.3114050   5.1586620  69.5147090   8.3392990
   6.1747850  72.1944780   8.8982840   5.8461210  71.3796540   8.5184570
   7.1230150  72.1514590   8.7748530   3.0150690  70.9043750   6.4534030
   2.2322480  71.3789250   6.7330790   2.7213620  69.9998580   6.3447210
   7.5671760  71.6066850   4.4983120   8.0079850  71.5511950   3.6504720
   7.2979350  72.5224860   4.5693300   9.4310330  71.2382090   2.5091940
   9.3698730  70.2943310   2.3622960  10.2102360  71.3462180   3.0545400
   5.4029890  69.9872950   3.2033130   6.0059260  70.5593160   3.6781650
   4.6622880  70.5512390   2.9807030   5.6525110  70.1667980  13.5828070
   5.5390560  70.4862590  14.4779590   6.4694850  70.5680490  13.2865350
   4.5583260  59.4116960  77.8180260   4.4777310  58.4971570  77.5471970
   4.1447680  59.9084030  77.1119970   2.6901300  61.1895980  79.6989530
   1.9143400  60.7096420  79.9888100   3.3414230  60.5101630  79.5245690
   6.7108730  65.5956170  78.4788660   6.2490260  64.8243410  78.8075830
   7.5234280  65.6222240  78.9841110   2.9372040  67.8814180  78.0992650
   2.3183480  68.3371680  77.5287090   3.7923820  68.0365640  77.6982350
   2.1310290  63.8653170  79.7059690   2.0618570  62.9243110  79.5448820
   2.8930150  63.9554580  80.2782260   3.1615460  56.6723550  79.9328620
   3.5380280  55.7995430  79.8202290   3.0634970  57.0082250  79.0419060
   6.9439580  54.1673990  76.8656960   7.7649200  53.6770560  76.9082440
   6.9773660  54.7571650  77.6188800   3.8035390  62.7653420  75.4924560
   3.1852660  63.2302870  74.9287280   4.3158640  63.4580900  75.9094070
   7.1801060  56.1074370  79.6384500   6.4756630  56.3959260  80.2187610
   7.5413220  56.9174480  79.2784060   8.7963840  65.7249500  81.9011980
   8.1127360  66.3948610  81.8928650   9.3358130  65.9230150  81.1356840
  10.2487980  55.5529160  80.0293710   9.3012890  55.5868140  80.1609140
  10.5737970  56.3668110  80.4143070   6.3322580  67.5693630  80.6157160
   6.3449740  67.1655920  79.7479420   5.7797800  68.3440920  80.5118590
   7.6268000  64.2909850  75.7047330   7.5164330  63.3484180  75.8296750
   7.6236250  64.6525490  76.5910090   3.1688280  59.9175170  75.0609820
   2.2417560  59.8512550  75.2898290   3.3213100  60.8555300  74.9465060
   3.1557360  56.1892170  72.0576980   2.2161030  56.3506130  72.1429440
   3.4740620  56.9077850  71.5112970   9.6770120  60.8710690  82.0356010
   8.8488750  60.9403780  81.5606140  10.2720600  61.4565000  81.5671840
   7.1985570  61.4795470  75.5645070   6.5797990  61.1415020  74.9171370
   7.1810020  60.8355230  76.2724260   5.3750270  60.7182280  72.5717820
   5.8143550  59.8804710  72.4255640   6.0878690  61.3511680  72.6581960
   3.4845650  65.6578350  76.5399060   3.9241560  66.4002680  76.1254450
   3.4232540  65.9004920  77.4638020   8.9567410  51.9725090  70.8858860
   8.6440070  52.0651920  71.7857930   9.7179880  52.5506120  70.8356290
   6.1515830  68.6447470  73.8962070   5.9916970  68.3550410  74.7943900
   5.9862540  67.8687600  73.3607300   5.8541960  66.1535030  72.4560070
   5.1607120  66.1512320  71.7962350   6.5964820  65.7294350  72.0254240
   5.4191890  67.7797740  76.5308560   5.8748840  66.9987120  76.8447180
   5.7584410  68.4904560  77.0749740   4.9625190  57.8116900  75.0531770
   4.3634080  58.5352700  74.8695390   5.5104800  57.7493680  74.2708220
   3.5690060  56.4480440  77.0835050   3.9619630  56.7652640  76.2703740
   3.9306910  55.5692320  77.1979570   4.1545200  59.0386190  81.1785830
   3.4226320  59.5473000  81.5275930   3.7569540  58.2216170  80.8774610
   4.6171110  54.4919870  80.5908770   4.6343850  54.9428520  81.4350620
   4.3686690  53.5925510  80.8042210   7.9699700  62.0177160  80.0381180
   8.6898820  62.5132450  79.6477290   7.7681520  61.3395050  79.3935050
   3.4309640  53.4115120  74.1810570   2.6174250  52.9128290  74.1055880
   3.2371590  54.2513370  73.7646920   6.1458030  57.7834770  72.4772730
   7.0337650  58.0952000  72.3024070   6.1163120  56.9107020  72.0853310
   8.4172300  59.0946610  71.9452590   8.3336020  59.5260830  71.0949030
   9.1366490  59.5544960  72.3779410   9.4459550  65.9488870  74.6734720
   8.8035710  65.2944490  74.9478440   9.0590210  66.3543960  73.8975390
   5.0246030  63.2774300  78.5206410   5.3769850  62.6802430  77.8607780
   4.1408360  62.9518530  78.6914660   3.9901210  64.5556710  81.4871930
   4.6323440  63.8549870  81.6004100   4.5150560  65.3355150  81.3068820
   7.8356930  64.8405330  71.2111070   7.6094510  64.1235770  71.8035710
   7.4453130  64.5917770  70.3732820   7.4173180  62.7577270  72.8725230
   7.1294880  63.2189960  73.6603110   8.2125350  62.2975040  73.1409450
   8.1743040  54.5926040  74.0320410   7.5456200  54.6971710  73.3178640
   7.6794960  54.8122820  74.8214290   2.6201180  66.3131630  71.4654390
   2.7213160  66.1095620  70.5356370   1.7202920  66.0589910  71.6702170
   4.1742500  53.5962650  76.8874080   4.0510280  53.6148780  75.9383590
   5.1227060  53.6441590  77.0072480   7.2671870  59.7509830  77.7360570
   6.3262010  59.7660060  77.9108260   7.5815940  58.9645790  78.1820870
   9.2697450  66.9218680  79.4114830   9.3944870  67.7449850  79.8838640
  10.1363010  66.7109410  79.0638980   8.9047460  67.4150330  72.3294270
   8.6188970  67.0015470  71.5148450   8.7067010  68.3438040  72.2094790
   3.6097420  62.4703640  71.3741870   3.0607520  62.9172940  72.0184610
   4.2316680  61.9652890  71.8979540   1.7900180  60.4532170  70.5184270
   2.3105840  59.7381190  70.1525420   2.4368580  61.0918040  70.8184780
   5.6519750  52.3136020  72.7452210   5.9322040  51.4703920  73.1011630
   4.8785480  52.5459130  73.2590960   2.3548210  68.5343780  72.8086010
   3.2499000  68.8728750  72.8304770   2.3865840  67.8123190  72.1810290
  10.5744010  64.8065270  70.8521920   9.7436970  64.8741920  71.3229150
  10.7515840  65.6969390  70.5488780  10.0300470  61.5512750  73.3556120
  10.7919380  62.1209400  73.4615810  10.0454840  60.9839950  74.1264430
  11.0360440  62.4062850  78.1998050  11.4069270  61.6230170  77.7934020
  11.6762370  63.0951950  78.0215350  10.0819640  61.8447120  70.5128640
  10.3568480  62.7526000  70.3847860   9.8930380  61.7809650  71.4490630
   6.4795250  54.8691970  71.8082270   6.8980130  54.6822950  70.9678930
   6.1731310  54.0171020  72.1185200   9.9784980  59.7816110  75.5058070
   9.6028580  59.0144040  75.0739360   9.2488100  60.1638810  75.9933000
   9.2535940  58.0073600  78.8065310   9.7773420  57.5136250  78.1755480
   9.8395360  58.1423960  79.5512880   8.7435910  57.2646950  74.7457720
   9.2395030  57.0317820  75.5306600   8.5451980  56.4258790  74.3295360
  10.1723070  55.9007900  77.2795400  10.0622350  55.7463940  78.2177670
  10.9330660  55.3728840  77.0370810  11.0613340  53.7315820  70.5201540
  11.9862650  53.5997000  70.3119830  11.0389130  53.8108640  71.4737990
  11.1351830  54.5026480  73.1458250  10.3403330  54.4371600  73.6751160
  11.3395110  55.4377120  73.1343600   8.0770250  68.5418030  77.1396640
   8.6729320  68.2202600  76.4631060   8.3348400  68.0689850  77.9309910
   8.6282460  69.1913330  80.9694370   8.1685430  69.9429140  80.5952390
   7.9994920  68.4719800  80.9109170   1.7973680  68.3910060  80.9711480
   2.0851490  68.1364360  80.0944490   2.3096900  67.8387420  81.5617050
   3.0150690  52.1300260  81.5507990   2.2322480  52.6045760  81.8304750
   2.7213620  51.2255090  81.4421170   7.5671760  52.8323360  79.5957080
   8.0079850  52.7768460  78.7478680   7.2979350  53.7481370  79.6667260
   9.4310330  52.4638600  77.6065900   9.3698730  51.5199820  77.4596920
  10.2102360  52.5718690  78.1519360   5.4029890  51.2129460  78.3007090
   6.0059260  51.7849670  78.7755610   4.6622880  51.7768900  78.0780990
   8.5464490  51.6151020  73.5747370   8.7415120  52.5134470  73.8414800
   7.7594360  51.3838100  74.0680320  10.0991100  68.8551730  75.3353930
  10.2743290  68.1689470  74.6914850   9.4012670  69.3798780  74.9430600
   4.5583260  59.4116960  59.0436770   4.4777310  58.4971570  58.7728480
   4.1447680  59.9084030  58.3376480   2.6901300  61.1895980  60.9246040
   1.9143400  60.7096420  61.2144610   3.3414230  60.5101630  60.7502200
   6.7108730  65.5956170  59.7045170   6.2490260  64.8243410  60.0332340
   7.5234280  65.6222240  60.2097620   2.9372040  67.8814180  59.3249160
   2.3183480  68.3371680  58.7543600   3.7923820  68.0365640  58.9238860
   2.1310290  63.8653170  60.9316200   2.0618570  62.9243110  60.7705330
   2.8930150  63.9554580  61.5038770   3.1615460  56.6723550  61.1585130
   3.5380280  55.7995430  61.0458800   3.0634970  57.0082250  60.2675570
   6.9439580  54.1673990  58.0913470   7.7649200  53.6770560  58.1338950
   6.9773660  54.7571650  58.8445310  11.2339130  56.1840740  64.6557100
  10.5291300  56.5722450  64.1372210  11.4997050  56.8791030  65.2578030
   3.8035390  62.7653420  56.7181070   3.1852660  63.2302870  56.1543790
   4.3158640  63.4580900  57.1350580   7.1801060  56.1074370  60.8641010
   6.4756630  56.3959260  61.4444120   7.5413220  56.9174480  60.5040570
   8.7963840  65.7249500  63.1268490   8.1127360  66.3948610  63.1185160
   9.3358130  65.9230150  62.3613350  10.2487980  55.5529160  61.2550220
   9.3012890  55.5868140  61.3865650  10.5737970  56.3668110  61.6399580
   6.3322580  67.5693630  61.8413670   6.3449740  67.1655920  60.9735930
   5.7797800  68.3440920  61.7375100   7.6268000  64.2909850  56.9303840
   7.5164330  63.3484180  57.0553260   7.6236250  64.6525490  57.8166600
   5.7308020  62.4723470  63.1696280   6.1476810  62.2583580  62.3349740
   6.4547840  62.7296260  63.7404900   3.1688280  59.9175170  56.2866330
   2.2417560  59.8512550  56.5154800   3.3213100  60.8555300  56.1721570
   3.1557360  56.1892170  53.2833490   2.2161030  56.3506130  53.3685950
   3.4740620  56.9077850  52.7369480   9.6770120  60.8710690  63.2612520
   8.8488750  60.9403780  62.7862650  10.2720600  61.4565000  62.7928350
   7.1985570  61.4795470  56.7901580   6.5797990  61.1415020  56.1427880
   7.1810020  60.8355230  57.4980770   6.6412130  57.6580010  64.2067390
   6.2283310  58.4833720  64.4607380   5.9088080  57.0725050  64.0143750
   7.3312230  67.7039340  64.8948370   6.8542790  68.5111530  64.7020980
   6.6474020  67.0517670  65.0474580   5.3750270  60.7182280  53.7974330
   5.8143550  59.8804710  53.6512150   6.0878690  61.3511680  53.8838470
   3.4845650  65.6578350  57.7655570   3.9241560  66.4002680  57.3510960
   3.4232540  65.9004920  58.6894530   8.9567410  51.9725090  52.1115370
   8.6440070  52.0651920  53.0114440   9.7179880  52.5506120  52.0612800
  10.9111440  67.4651280  69.9639760  11.3871160  67.9434170  70.6428840
  11.5318600  67.3968770  69.2385260  10.3144690  64.6564130  67.1239770
  10.4407750  64.4176010  66.2056950  10.3566070  63.8248670  67.5961850
   4.1761430  68.3592130  65.6934580   4.6906100  68.2700140  66.4957010
   3.3330510  68.7051830  65.9862490   6.1515830  68.6447470  55.1218580
   5.9916970  68.3550410  56.0200410   5.9862540  67.8687600  54.5863810
   5.8541960  66.1535030  53.6816580   5.1607120  66.1512320  53.0218860
   6.5964820  65.7294350  53.2510750   5.4191890  67.7797740  57.7565070
   5.8748840  66.9987120  58.0703690   5.7584410  68.4904560  58.3006250
  10.1668700  56.7096590  68.0889510   9.5512970  57.2176260  67.5604970
   9.8465120  55.8094920  68.0315450   2.2283020  55.5488480  65.5551700
   1.7662390  55.7571500  66.3671640   1.8261130  54.7347830  65.2522370
   7.2287530  56.7697430  66.6848360   6.3781120  56.4703180  67.0057430
   7.0689320  57.0139440  65.7732180   4.3237240  58.2699180  68.7847150
   4.6490650  57.4362930  68.4449380   5.1117570  58.7927700  68.9325480
   4.9625190  57.8116900  56.2788280   4.3634080  58.5352700  56.0951900
   5.5104800  57.7493680  55.4964730   3.5690060  56.4480440  58.3091560
   3.9619630  56.7652640  57.4960250   3.9306910  55.5692320  58.4236080
   4.1545200  59.0386190  62.4042340   3.4226320  59.5473000  62.7532440
   3.7569540  58.2216170  62.1031120   4.6171110  54.4919870  61.8165280
   4.6343850  54.9428520  62.6607130   4.3686690  53.5925510  62.0298720
   8.0441860  51.9052050  67.6551660   8.3687630  51.1741710  68.1809640
   8.0798370  51.5865690  66.7532650   7.9699700  62.0177160  61.2637690
   8.6898820  62.5132450  60.8733800   7.7681520  61.3395050  60.6191560
   3.4309640  53.4115120  55.4067080   2.6174250  52.9128290  55.3312390
   3.2371590  54.2513370  54.9903430   3.3518500  62.0886220  67.1506690
   3.2855810  61.1681890  66.8964280   2.7223640  62.1861660  67.8651330
   6.1458030  57.7834770  53.7029240   7.0337650  58.0952000  53.5280580
   6.1163120  56.9107020  53.3109820   3.2835230  64.9106790  66.9010490
   3.2979770  63.9787750  66.6829400   2.5760330  64.9966550  67.5400260
   8.4172300  59.0946610  53.1709100   8.3336020  59.5260830  52.3205540
   9.1366490  59.5544960  53.6035920   9.4946440  61.5514130  66.2479070
   8.7694630  62.1442910  66.0508460  10.0221900  61.5437670  65.4492440
   9.4459550  65.9488870  55.8991230   8.8035710  65.2944490  56.1734950
   9.0590210  66.3543960  55.1231900   5.0246030  63.2774300  59.7462920
   5.3769850  62.6802430  59.0864290   4.1408360  62.9518530  59.9171170
   2.7169130  66.5524360  63.9950990   3.3611350  66.7583740  64.6724410
   3.0798570  65.7912760  63.5421840   3.9901210  64.5556710  62.7128440
   4.6323440  63.8549870  62.8260610   4.5150560  65.3355150  62.5325330
   7.8356930  64.8405330  52.4367580   7.6094510  64.1235770  53.0292220
   7.4453130  64.5917770  51.5989330   5.7638830  65.3551610  65.9164500
   6.0995070  65.9418300  66.5942420   4.8439170  65.2244320  66.1462290
   7.4173180  62.7577270  54.0981740   7.1294880  63.2189960  54.8859620
   8.2125350  62.2975040  54.3665960   4.8081010  55.6369100  64.4489360
   5.1761830  54.8164310  64.7768930   3.9479210  55.6970990  64.8645010
   8.1743040  54.5926040  55.2576920   7.5456200  54.6971710  54.5435150
   7.6794960  54.8122820  56.0470800   2.6201180  66.3131630  52.6910900
   2.7213160  66.1095620  51.7612880   1.7202920  66.0589910  52.8958680
   1.7683000  58.2908690  64.6727330   2.2668250  58.7654510  65.3379180
   1.9105950  57.3672210  64.8797360   4.1742500  53.5962650  58.1130590
   4.0510280  53.6148780  57.1640100   5.1227060  53.6441590  58.2328990
   8.9749860  54.5076650  65.5155720   8.4723460  55.2482050  65.8549530
   9.7906520  54.8960650  65.1992510   7.2671870  59.7509830  58.9617080
   6.3262010  59.7660060  59.1364770   7.5815940  58.9645790  59.4077380
   9.2697450  66.9218680  60.6371340   9.3944870  67.7449850  61.1095150
  10.1363010  66.7109410  60.2895490   4.5837890  64.3075830  69.4449460
   3.9776050  64.3307430  68.7045210   4.2792000  63.5758870  69.9816710
   6.0138260  68.0356120  68.0558870   6.9660010  67.9514140  68.0059110
   5.8666480  68.6997830  68.7292660   8.9047460  67.4150330  53.5550780
   8.6188970  67.0015470  52.7404960   8.7067010  68.3438040  53.4351300
   3.6097420  62.4703640  52.5998380   3.0607520  62.9172940  53.2441120
   4.2316680  61.9652890  53.1236050   7.6632360  63.8245740  68.5320640
   8.4041830  64.1621500  68.0288100   6.9005040  63.9937800  67.9790410
   1.7900180  60.4532170  51.7440780   2.3105840  59.7381190  51.3781930
   2.4368580  61.0918040  52.0441290   6.3378020  61.8760570  67.0675850
   6.7519040  62.0305650  67.9166270   5.4029020  62.0015790  67.2301630
   6.8100190  59.2156730  69.0715000   7.3920960  58.4609050  68.9835480
   6.9861960  59.7464170  68.2946480   3.4357150  59.5597230  66.4209620
   3.5553360  58.9638370  67.1604460   4.2951150  59.5966920  66.0010920
   5.7745050  60.1134420  64.9972130   5.2480270  60.6377040  64.3937270
   6.1176390  60.7461810  65.6281860   5.0219350  55.7184390  67.9118460
   4.3334870  55.0565930  67.8468450   5.7425370  55.2722660  68.3566920
   5.6519750  52.3136020  53.9708720   5.9322040  51.4703920  54.3268140
   4.8785480  52.5459130  54.4847470   2.3548210  68.5343780  54.0342520
   3.2499000  68.8728750  54.0561280   2.3865840  67.8123190  53.4066800
   9.3342560  67.0647450  66.7408720   8.7344550  67.1240010  65.9972640
   9.4636460  66.1252430  66.8705570  10.5744010  64.8065270  52.0778430
   9.7436970  64.8741920  52.5485660  10.7515840  65.6969390  51.7745290
  10.0300470  61.5512750  54.5812630  10.7919380  62.1209400  54.6872320
  10.0454840  60.9839950  55.3520940  11.0360440  62.4062850  59.4254560
  11.4069270  61.6230170  59.0190530  11.6762370  63.0951950  59.2471860
   8.0194200  63.7899430  64.8384880   7.2054040  64.2196590  65.1010670
   8.4268400  64.4017840  64.2253930  10.0819640  61.8447120  51.7385150
  10.3568480  62.7526000  51.6104370   9.8930380  61.7809650  52.6747140
   6.4795250  54.8691970  53.0338780   6.8980130  54.6822950  52.1935440
   6.1731310  54.0171020  53.3441710   9.9784980  59.7816110  56.7314580
   9.6028580  59.0144040  56.2995870   9.2488100  60.1638810  57.2189510
   9.3684600  58.9287630  66.3654100   9.1370690  58.7000380  65.4652050
   9.6289150  59.8487180  66.3198990   7.8072670  54.1544060  69.1433800
   8.6842850  54.1627460  69.5267800   7.8193510  53.4174900  68.5326150
   9.2535940  58.0073600  60.0321820   9.7773420  57.5136250  59.4011990
   9.8395360  58.1423960  60.7769390   9.4325660  58.0913470  63.5541370
   8.4828370  58.0577010  63.6686360   9.6138670  59.0013580  63.3191140
   8.7435910  57.2646950  55.9714230   9.2395030  57.0317820  56.7563110
   8.5451980  56.4258790  55.5551870  10.1723070  55.9007900  58.5051910
  10.0622350  55.7463940  59.4434180  10.9330660  55.3728840  58.2627320
   8.5188790  51.8402030  64.9634910   9.1561010  52.4536170  65.3294100
   8.6663680  51.8762690  64.0184140  11.0613340  53.7315820  51.7458050
  11.9862650  53.5997000  51.5376340  11.0389130  53.8108640  52.6994500
  11.1351830  54.5026480  54.3714760  10.3403330  54.4371600  54.9007670
  11.3395110  55.4377120  54.3600110   8.0770250  68.5418030  58.3653150
   8.6729320  68.2202600  57.6887570   8.3348400  68.0689850  59.1566420
   1.8893270  52.9928220  67.8710010   1.8282160  53.5850050  68.6205420
   2.8293650  52.8854180  67.7260270   4.5267830  52.6498280  67.5102300
   5.1408240  52.9677570  66.8483380   5.0717390  52.1646870  68.1298160
  10.9443010  68.5489910  64.9164140  10.4501290  68.9458780  64.1991270
  10.3356300  67.9239120  65.3101420   5.2675870  51.2130420  63.8371590
   4.3935710  51.5465530  63.6344520   5.1586620  50.7403600  64.6623460
   6.1747850  53.4201290  65.2213310   5.8461210  52.6053050  64.8415040
   7.1230150  53.3771100  65.0979000   8.6282460  69.1913330  62.1950880
   8.1685430  69.9429140  61.8208900   7.9994920  68.4719800  62.1365680
   1.7973680  68.3910060  62.1967990   2.0851490  68.1364360  61.3201000
   2.3096900  67.8387420  62.7873560   3.0150690  52.1300260  62.7764500
   2.2322480  52.6045760  63.0561260   2.7213620  51.2255090  62.6677680
   7.5671760  52.8323360  60.8213590   8.0079850  52.7768460  59.9735190
   7.2979350  53.7481370  60.8923770   9.4310330  52.4638600  58.8322410
   9.3698730  51.5199820  58.6853430  10.2102360  52.5718690  59.3775870
   5.4029890  51.2129460  59.5263600   6.0059260  51.7849670  60.0012120
   4.6622880  51.7768900  59.3037500   8.5464490  51.6151020  54.8003880
   8.7415120  52.5134470  55.0671310   7.7594360  51.3838100  55.2936830
   1.8646040  69.3126160  69.5636190   2.7913350  69.0770430  69.6072150
   1.8496470  70.1398160  69.0822220  10.0991100  68.8551730  56.5610440
  10.2743290  68.1689470  55.9171360   9.4012670  69.3798780  56.1687110
   5.6525110  51.3924490  69.9058540   5.5390560  51.7119100  70.8010060
   6.4694850  51.7937000  69.6095820   8.4323600  68.5396020  69.3877230
   9.2248920  68.0445250  69.1803190   8.7256750  69.2186160  69.9952840
   4.5583260  59.4116960  40.2693280   4.4777310  58.4971570  39.9984990
   4.1447680  59.9084030  39.5632990   2.6901300  61.1895980  42.1502550
   1.9143400  60.7096420  42.4401120   3.3414230  60.5101630  41.9758710
   6.7108730  65.5956170  40.9301680   6.2490260  64.8243410  41.2588850
   7.5234280  65.6222240  41.4354130   2.9372040  67.8814180  40.5505670
   2.3183480  68.3371680  39.9800110   3.7923820  68.0365640  40.1495370
   2.1310290  63.8653170  42.1572710   2.0618570  62.9243110  41.9961840
   2.8930150  63.9554580  42.7295280   3.1615460  56.6723550  42.3841640
   3.5380280  55.7995430  42.2715310   3.0634970  57.0082250  41.4932080
   6.9439580  54.1673990  39.3169980   7.7649200  53.6770560  39.3595460
   6.9773660  54.7571650  40.0701820  11.2339130  56.1840740  45.8813610
  10.5291300  56.5722450  45.3628720  11.4997050  56.8791030  46.4834540
   3.8035390  62.7653420  37.9437580   3.1852660  63.2302870  37.3800300
   4.3158640  63.4580900  38.3607090   7.1801060  56.1074370  42.0897520
   6.4756630  56.3959260  42.6700630   7.5413220  56.9174480  41.7297080
   8.7963840  65.7249500  44.3525000   8.1127360  66.3948610  44.3441670
   9.3358130  65.9230150  43.5869860  10.2487980  55.5529160  42.4806730
   9.3012890  55.5868140  42.6122160  10.5737970  56.3668110  42.8656090
   6.3322580  67.5693630  43.0670180   6.3449740  67.1655920  42.1992440
   5.7797800  68.3440920  42.9631610   7.6268000  64.2909850  38.1560350
   7.5164330  63.3484180  38.2809770   7.6236250  64.6525490  39.0423110
   5.7308020  62.4723470  44.3952790   6.1476810  62.2583580  43.5606250
   6.4547840  62.7296260  44.9661410   3.1688280  59.9175170  37.5122840
   2.2417560  59.8512550  37.7411310   3.3213100  60.8555300  37.3978080
   3.1557360  56.1892170  34.5090000   2.2161030  56.3506130  34.5942460
   3.4740620  56.9077850  33.9625990   9.6770120  60.8710690  44.4869030
   8.8488750  60.9403780  44.0119160  10.2720600  61.4565000  44.0184860
   7.1985570  61.4795470  38.0158090   6.5797990  61.1415020  37.3684390
   7.1810020  60.8355230  38.7237280   6.6412130  57.6580010  45.4323900
   6.2283310  58.4833720  45.6863890   5.9088080  57.0725050  45.2400260
   7.3312230  67.7039340  46.1204880   6.8542790  68.5111530  45.9277490
   6.6474020  67.0517670  46.2731090   5.3750270  60.7182280  35.0230840
   5.8143550  59.8804710  34.8768660   6.0878690  61.3511680  35.1094980
   3.4845650  65.6578350  38.9912080   3.9241560  66.4002680  38.5767470
   3.4232540  65.9004920  39.9151040   8.9567410  51.9725090  33.3371880
   8.6440070  52.0651920  34.2370950   9.7179880  52.5506120  33.2869310
  10.9111440  67.4651280  51.1896270  11.3871160  67.9434170  51.8685350
  11.5318600  67.3968770  50.4641770  10.3144690  64.6564130  48.3496280
  10.4407750  64.4176010  47.4313460  10.3566070  63.8248670  48.8218360
   4.1761430  68.3592130  46.9191090   4.6906100  68.2700140  47.7213520
   3.3330510  68.7051830  47.2119000   6.1515830  68.6447470  36.3475090
   5.9916970  68.3550410  37.2456920   5.9862540  67.8687600  35.8120320
   5.8541960  66.1535030  34.9073090   5.1607120  66.1512320  34.2475370
   6.5964820  65.7294350  34.4767260   5.4191890  67.7797740  38.9821580
   5.8748840  66.9987120  39.2960200   5.7584410  68.4904560  39.5262760
  10.1668700  56.7096590  49.3146020   9.5512970  57.2176260  48.7861480
   9.8465120  55.8094920  49.2571960   2.2283020  55.5488480  46.7808210
   1.7662390  55.7571500  47.5928150   1.8261130  54.7347830  46.4778880
   7.2287530  56.7697430  47.9104870   6.3781120  56.4703180  48.2313940
   7.0689320  57.0139440  46.9988690   4.3237240  58.2699180  50.0103660
   4.6490650  57.4362930  49.6705890   5.1117570  58.7927700  50.1581990
   4.9625190  57.8116900  37.5044790   4.3634080  58.5352700  37.3208410
   5.5104800  57.7493680  36.7221240   3.5690060  56.4480440  39.5348070
   3.9619630  56.7652640  38.7216760   3.9306910  55.5692320  39.6492590
   4.1545200  59.0386190  43.6298850   3.4226320  59.5473000  43.9788950
   3.7569540  58.2216170  43.3287630   4.6171110  54.4919870  43.0421790
   4.6343850  54.9428520  43.8863640   4.3686690  53.5925510  43.2555230
   8.0441860  51.9052050  48.8808170   8.3687630  51.1741710  49.4066150
   8.0798370  51.5865690  47.9789160   7.9699700  62.0177160  42.4894200
   8.6898820  62.5132450  42.0990310   7.7681520  61.3395050  41.8448070
   3.4309640  53.4115120  36.6323590   2.6174250  52.9128290  36.5568900
   3.2371590  54.2513370  36.2159940   3.3518500  62.0886220  48.3763200
   3.2855810  61.1681890  48.1220790   2.7223640  62.1861660  49.0907840
   6.1458030  57.7834770  34.9285750   7.0337650  58.0952000  34.7537090
   6.1163120  56.9107020  34.5366330   3.2835230  64.9106790  48.1267000
   3.2979770  63.9787750  47.9085910   2.5760330  64.9966550  48.7656770
   8.4172300  59.0946610  34.3965610   8.3336020  59.5260830  33.5462050
   9.1366490  59.5544960  34.8292430   9.4946440  61.5514130  47.4735580
   8.7694630  62.1442910  47.2764970  10.0221900  61.5437670  46.6748950
   9.4459550  65.9488870  37.1247740   8.8035710  65.2944490  37.3991460
   9.0590210  66.3543960  36.3488410   5.0246030  63.2774300  40.9719430
   5.3769850  62.6802430  40.3120800   4.1408360  62.9518530  41.1427680
   2.7169130  66.5524360  45.2207500   3.3611350  66.7583740  45.8980920
   3.0798570  65.7912760  44.7678350   3.9901210  64.5556710  43.9384950
   4.6323440  63.8549870  44.0517120   4.5150560  65.3355150  43.7581840
   7.8356930  64.8405330  33.6624090   7.6094510  64.1235770  34.2548730
   7.4453130  64.5917770  32.8245840   5.7638830  65.3551610  47.1421010
   6.0995070  65.9418300  47.8198930   4.8439170  65.2244320  47.3718800
   7.4173180  62.7577270  35.3238250   7.1294880  63.2189960  36.1116130
   8.2125350  62.2975040  35.5922470   4.8081010  55.6369100  45.6745870
   5.1761830  54.8164310  46.0025440   3.9479210  55.6970990  46.0901520
   8.1743040  54.5926040  36.4833430   7.5456200  54.6971710  35.7691660
   7.6794960  54.8122820  37.2727310   2.6201180  66.3131630  33.9167410
   2.7213160  66.1095620  32.9869390   1.7202920  66.0589910  34.1215190
   1.7683000  58.2908690  45.8983840   2.2668250  58.7654510  46.5635690
   1.9105950  57.3672210  46.1053870   4.1742500  53.5962650  39.3387100
   4.0510280  53.6148780  38.3896610   5.1227060  53.6441590  39.4585500
   8.9749860  54.5076650  46.7412230   8.4723460  55.2482050  47.0806040
   9.7906520  54.8960650  46.4249020   7.2671870  59.7509830  40.1873590
   6.3262010  59.7660060  40.3621280   7.5815940  58.9645790  40.6333890
   9.2697450  66.9218680  41.8627850   9.3944870  67.7449850  42.3351660
  10.1363010  66.7109410  41.5152000   4.5837890  64.3075830  50.6705970
   3.9776050  64.3307430  49.9301720   4.2792000  63.5758870  51.2073220
   6.0138260  68.0356120  49.2815380   6.9660010  67.9514140  49.2315620
   5.8666480  68.6997830  49.9549170   8.9047460  67.4150330  34.7807290
   8.6188970  67.0015470  33.9661470   8.7067010  68.3438040  34.6607810
   3.6097420  62.4703640  33.8254890   3.0607520  62.9172940  34.4697630
   4.2316680  61.9652890  34.3492560   7.6632360  63.8245740  49.7577150
   8.4041830  64.1621500  49.2544610   6.9005040  63.9937800  49.2046920
   1.7900180  60.4532170  32.9697290   2.3105840  59.7381190  32.6038440
   2.4368580  61.0918040  33.2697800   6.3378020  61.8760570  48.2932360
   6.7519040  62.0305650  49.1422780   5.4029020  62.0015790  48.4558140
   6.8100190  59.2156730  50.2971510   7.3920960  58.4609050  50.2091990
   6.9861960  59.7464170  49.5202990   3.4357150  59.5597230  47.6466130
   3.5553360  58.9638370  48.3860970   4.2951150  59.5966920  47.2267430
   5.7745050  60.1134420  46.2228640   5.2480270  60.6377040  45.6193780
   6.1176390  60.7461810  46.8538370   5.0219350  55.7184390  49.1374970
   4.3334870  55.0565930  49.0724960   5.7425370  55.2722660  49.5823430
   5.6519750  52.3136020  35.1965230   5.9322040  51.4703920  35.5524650
   4.8785480  52.5459130  35.7103980   2.3548210  68.5343780  35.2599030
   3.2499000  68.8728750  35.2817790   2.3865840  67.8123190  34.6323310
   9.3342560  67.0647450  47.9665230   8.7344550  67.1240010  47.2229150
   9.4636460  66.1252430  48.0962080  10.5744010  64.8065270  33.3034940
   9.7436970  64.8741920  33.7742170  10.7515840  65.6969390  33.0001800
  10.0300470  61.5512750  35.8069140  10.7919380  62.1209400  35.9128830
  10.0454840  60.9839950  36.5777450  11.0360440  62.4062850  40.6511070
  11.4069270  61.6230170  40.2447040  11.6762370  63.0951950  40.4728370
   8.0194200  63.7899430  46.0641390   7.2054040  64.2196590  46.3267180
   8.4268400  64.4017840  45.4510440  10.0819640  61.8447120  32.9641660
  10.3568480  62.7526000  32.8360880   9.8930380  61.7809650  33.9003650
   6.4795250  54.8691970  34.2595290   6.8980130  54.6822950  33.4191950
   6.1731310  54.0171020  34.5698220   9.9784980  59.7816110  37.9571090
   9.6028580  59.0144040  37.5252380   9.2488100  60.1638810  38.4446020
   9.3684600  58.9287630  47.5910610   9.1370690  58.7000380  46.6908560
   9.6289150  59.8487180  47.5455500   7.8072670  54.1544060  50.3690310
   8.6842850  54.1627460  50.7524310   7.8193510  53.4174900  49.7582660
   9.2535940  58.0073600  41.2578330   9.7773420  57.5136250  40.6268500
   9.8395360  58.1423960  42.0025900   9.4325660  58.0913470  44.7797880
   8.4828370  58.0577010  44.8942870   9.6138670  59.0013580  44.5447650
   8.7435910  57.2646950  37.1970740   9.2395030  57.0317820  37.9819620
   8.5451980  56.4258790  36.7808380  10.1723070  55.9007900  39.7308420
  10.0622350  55.7463940  40.6690690  10.9330660  55.3728840  39.4883830
   8.5188790  51.8402030  46.1891420   9.1561010  52.4536170  46.5550610
   8.6663680  51.8762690  45.2440650  11.0613340  53.7315820  32.9714560
  11.9862650  53.5997000  32.7632850  11.0389130  53.8108640  33.9251010
  11.1351830  54.5026480  35.5971270  10.3403330  54.4371600  36.1264180
  11.3395110  55.4377120  35.5856620   8.0770250  68.5418030  39.5909660
   8.6729320  68.2202600  38.9144080   8.3348400  68.0689850  40.3822930
   1.8893270  52.9928220  49.0966520   1.8282160  53.5850050  49.8461930
   2.8293650  52.8854180  48.9516780   4.5267830  52.6498280  48.7358810
   5.1408240  52.9677570  48.0739890   5.0717390  52.1646870  49.3554670
  10.9443010  68.5489910  46.1420650  10.4501290  68.9458780  45.4247780
  10.3356300  67.9239120  46.5357930   5.2675870  51.2130420  45.0628100
   4.3935710  51.5465530  44.8601030   5.1586620  50.7403600  45.8879970
   6.1747850  53.4201290  46.4469820   5.8461210  52.6053050  46.0671550
   7.1230150  53.3771100  46.3235510   8.6282460  69.1913330  43.4207390
   8.1685430  69.9429140  43.0465410   7.9994920  68.4719800  43.3622190
   1.7973680  68.3910060  43.4224500   2.0851490  68.1364360  42.5457510
   2.3096900  67.8387420  44.0130070   3.0150690  52.1300260  44.0021010
   2.2322480  52.6045760  44.2817770   2.7213620  51.2255090  43.8934190
   7.5671760  52.8323360  42.0470100   8.0079850  52.7768460  41.1991700
   7.2979350  53.7481370  42.1180280   9.4310330  52.4638600  40.0578920
   9.3698730  51.5199820  39.9109940  10.2102360  52.5718690  40.6032380
   5.4029890  51.2129460  40.7520110   6.0059260  51.7849670  41.2268630
   4.6622880  51.7768900  40.5294010   8.5464490  51.6151020  36.0260390
   8.7415120  52.5134470  36.2927820   7.7594360  51.3838100  36.5193340
   1.8646040  69.3126160  50.7892700   2.7913350  69.0770430  50.8328660
   1.8496470  70.1398160  50.3078730  10.0991100  68.8551730  37.7866950
  10.2743290  68.1689470  37.1427870   9.4012670  69.3798780  37.3943620
   5.6525110  51.3924490  51.1315050   5.5390560  51.7119100  52.0266570
   6.4694850  51.7937000  50.8352330   8.4323600  68.5396020  50.6133740
   9.2248920  68.0445250  50.4059700   8.7256750  69.2186160  51.2209350
   4.5583260  59.4116960  21.4949790   4.4777310  58.4971570  21.2241500
   4.1447680  59.9084030  20.7889500   2.6901300  61.1895980  23.3759060
   1.9143400  60.7096420  23.6657630   3.3414230  60.5101630  23.2015220
   6.7108730  65.5956170  22.1558190   6.2490260  64.8243410  22.4845360
   7.5234280  65.6222240  22.6610640   2.9372040  67.8814180  21.7762180
   2.3183480  68.3371680  21.2056620   3.7923820  68.0365640  21.3751880
   2.1310290  63.8653170  23.3829220   2.0618570  62.9243110  23.2218350
   2.8930150  63.9554580  23.9551790   3.1615460  56.6723550  23.6098150
   3.5380280  55.7995430  23.4971820   3.0634970  57.0082250  22.7188590
   6.9439580  54.1673990  20.5426490   7.7649200  53.6770560  20.5851970
   6.9773660  54.7571650  21.2958330  11.2339130  56.1840740  27.1070120
  10.5291300  56.5722450  26.5885230  11.4997050  56.8791030  27.7091050
   3.8035390  62.7653420  19.1694090   3.1852660  63.2302870  18.6056810
   4.3158640  63.4580900  19.5863600   7.1801060  56.1074370  23.3154030
   6.4756630  56.3959260  23.8957140   7.5413220  56.9174480  22.9553590
   8.7963840  65.7249500  25.5781510   8.1127360  66.3948610  25.5698180
   9.3358130  65.9230150  24.8126370  10.2487980  55.5529160  23.7063240
   9.3012890  55.5868140  23.8378670  10.5737970  56.3668110  24.0912600
   6.3322580  67.5693630  24.2926690   6.3449740  67.1655920  23.4248950
   5.7797800  68.3440920  24.1888120   7.6268000  64.2909850  19.3816860
   7.5164330  63.3484180  19.5066280   7.6236250  64.6525490  20.2679620
   5.7308020  62.4723470  25.6209300   6.1476810  62.2583580  24.7862760
   6.4547840  62.7296260  26.1917920   3.1688280  59.9175170  18.7379350
   2.2417560  59.8512550  18.9667820   3.3213100  60.8555300  18.6234590
   3.1557360  56.1892170  15.7346510   2.2161030  56.3506130  15.8198970
   3.4740620  56.9077850  15.1882500   9.6770120  60.8710690  25.7125540
   8.8488750  60.9403780  25.2375670  10.2720600  61.4565000  25.2441370
   7.1985570  61.4795470  19.2414600   6.5797990  61.1415020  18.5940900
   7.1810020  60.8355230  19.9493790   6.6412130  57.6580010  26.6580410
   6.2283310  58.4833720  26.9120400   5.9088080  57.0725050  26.4656770
   7.3312230  67.7039340  27.3461390   6.8542790  68.5111530  27.1534000
   6.6474020  67.0517670  27.4987600   5.3750270  60.7182280  16.2487350
   5.8143550  59.8804710  16.1025170   6.0878690  61.3511680  16.3351490
   3.4845650  65.6578350  20.2168590   3.9241560  66.4002680  19.8023980
   3.4232540  65.9004920  21.1407550   8.9567410  51.9725090  14.5628390
   8.6440070  52.0651920  15.4627460   9.7179880  52.5506120  14.5125820
  10.9111440  67.4651280  32.4152780  11.3871160  67.9434170  33.0941860
  11.5318600  67.3968770  31.6898280  10.3144690  64.6564130  29.5752790
  10.4407750  64.4176010  28.6569970  10.3566070  63.8248670  30.0474870
   4.1761430  68.3592130  28.1447600   4.6906100  68.2700140  28.9470030
   3.3330510  68.7051830  28.4375510   6.1515830  68.6447470  17.5731600
   5.9916970  68.3550410  18.4713430   5.9862540  67.8687600  17.0376830
   5.8541960  66.1535030  16.1329600   5.1607120  66.1512320  15.4731880
   6.5964820  65.7294350  15.7023770   5.4191890  67.7797740  20.2078090
   5.8748840  66.9987120  20.5216710   5.7584410  68.4904560  20.7519270
  10.1668700  56.7096590  30.5402530   9.5512970  57.2176260  30.0117990
   9.8465120  55.8094920  30.4828470   2.2283020  55.5488480  28.0064720
   1.7662390  55.7571500  28.8184660   1.8261130  54.7347830  27.7035390
   7.2287530  56.7697430  29.1361380   6.3781120  56.4703180  29.4570450
   7.0689320  57.0139440  28.2245200   4.3237240  58.2699180  31.2360170
   4.6490650  57.4362930  30.8962400   5.1117570  58.7927700  31.3838500
   4.9625190  57.8116900  18.7301300   4.3634080  58.5352700  18.5464920
   5.5104800  57.7493680  17.9477750   3.5690060  56.4480440  20.7604580
   3.9619630  56.7652640  19.9473270   3.9306910  55.5692320  20.8749100
   4.1545200  59.0386190  24.8555360   3.4226320  59.5473000  25.2045460
   3.7569540  58.2216170  24.5544140   4.6171110  54.4919870  24.2678300
   4.6343850  54.9428520  25.1120150   4.3686690  53.5925510  24.4811740
   8.0441860  51.9052050  30.1064680   8.3687630  51.1741710  30.6322660
   8.0798370  51.5865690  29.2045670   7.9699700  62.0177160  23.7150710
   8.6898820  62.5132450  23.3246820   7.7681520  61.3395050  23.0704580
   3.4309640  53.4115120  17.8580100   2.6174250  52.9128290  17.7825410
   3.2371590  54.2513370  17.4416450   3.3518500  62.0886220  29.6019710
   3.2855810  61.1681890  29.3477300   2.7223640  62.1861660  30.3164350
   6.1458030  57.7834770  16.1542260   7.0337650  58.0952000  15.9793600
   6.1163120  56.9107020  15.7622840   3.2835230  64.9106790  29.3523510
   3.2979770  63.9787750  29.1342420   2.5760330  64.9966550  29.9913280
   8.4172300  59.0946610  15.6222120   8.3336020  59.5260830  14.7718560
   9.1366490  59.5544960  16.0548940   9.4946440  61.5514130  28.6992090
   8.7694630  62.1442910  28.5021480  10.0221900  61.5437670  27.9005460
   9.4459550  65.9488870  18.3504250   8.8035710  65.2944490  18.6247970
   9.0590210  66.3543960  17.5744920   5.0246030  63.2774300  22.1975940
   5.3769850  62.6802430  21.5377310   4.1408360  62.9518530  22.3684190
   2.7169130  66.5524360  26.4464010   3.3611350  66.7583740  27.1237430
   3.0798570  65.7912760  25.9934860   3.9901210  64.5556710  25.1641460
   4.6323440  63.8549870  25.2773630   4.5150560  65.3355150  24.9838350
   7.8356930  64.8405330  14.8880600   7.6094510  64.1235770  15.4805240
   7.4453130  64.5917770  14.0502350   5.7638830  65.3551610  28.3677520
   6.0995070  65.9418300  29.0455440   4.8439170  65.2244320  28.5975310
   7.4173180  62.7577270  16.5494760   7.1294880  63.2189960  17.3372640
   8.2125350  62.2975040  16.8178980   4.8081010  55.6369100  26.9002380
   5.1761830  54.8164310  27.2281950   3.9479210  55.6970990  27.3158030
   8.1743040  54.5926040  17.7089940   7.5456200  54.6971710  16.9948170
   7.6794960  54.8122820  18.4983820   2.6201180  66.3131630  15.1423920
   2.7213160  66.1095620  14.2125900   1.7202920  66.0589910  15.3471700
   1.7683000  58.2908690  27.1240350   2.2668250  58.7654510  27.7892200
   1.9105950  57.3672210  27.3310380   4.1742500  53.5962650  20.5643610
   4.0510280  53.6148780  19.6153120   5.1227060  53.6441590  20.6842010
   8.9749860  54.5076650  27.9668740   8.4723460  55.2482050  28.3062550
   9.7906520  54.8960650  27.6505530   7.2671870  59.7509830  21.4130100
   6.3262010  59.7660060  21.5877790   7.5815940  58.9645790  21.8590400
   9.2697450  66.9218680  23.0884360   9.3944870  67.7449850  23.5608170
  10.1363010  66.7109410  22.7408510   4.5837890  64.3075830  31.8962480
   3.9776050  64.3307430  31.1558230   4.2792000  63.5758870  32.4329730
   6.0138260  68.0356120  30.5071890   6.9660010  67.9514140  30.4572130
   5.8666480  68.6997830  31.1805680   8.9047460  67.4150330  16.0063800
   8.6188970  67.0015470  15.1917980   8.7067010  68.3438040  15.8864320
   3.6097420  62.4703640  15.0511400   3.0607520  62.9172940  15.6954140
   4.2316680  61.9652890  15.5749070   7.6632360  63.8245740  30.9833660
   8.4041830  64.1621500  30.4801120   6.9005040  63.9937800  30.4303430
   1.7900180  60.4532170  14.1953800   2.3105840  59.7381190  13.8294950
   2.4368580  61.0918040  14.4954310   6.3378020  61.8760570  29.5188870
   6.7519040  62.0305650  30.3679290   5.4029020  62.0015790  29.6814650
   6.8100190  59.2156730  31.5228020   7.3920960  58.4609050  31.4348500
   6.9861960  59.7464170  30.7459500   3.4357150  59.5597230  28.8722640
   3.5553360  58.9638370  29.6117480   4.2951150  59.5966920  28.4523940
   5.7745050  60.1134420  27.4485150   5.2480270  60.6377040  26.8450290
   6.1176390  60.7461810  28.0794880   5.0219350  55.7184390  30.3631480
   4.3334870  55.0565930  30.2981470   5.7425370  55.2722660  30.8079940
   5.6519750  52.3136020  16.4221740   5.9322040  51.4703920  16.7781160
   4.8785480  52.5459130  16.9360490   2.3548210  68.5343780  16.4855540
   3.2499000  68.8728750  16.5074300   2.3865840  67.8123190  15.8579820
   9.3342560  67.0647450  29.1921740   8.7344550  67.1240010  28.4485660
   9.4636460  66.1252430  29.3218590  10.5744010  64.8065270  14.5291450
   9.7436970  64.8741920  14.9998680  10.7515840  65.6969390  14.2258310
  10.0300470  61.5512750  17.0325650  10.7919380  62.1209400  17.1385340
  10.0454840  60.9839950  17.8033960  11.0360440  62.4062850  21.8767580
  11.4069270  61.6230170  21.4703550  11.6762370  63.0951950  21.6984880
   8.0194200  63.7899430  27.2897900   7.2054040  64.2196590  27.5523690
   8.4268400  64.4017840  26.6766950  10.0819640  61.8447120  14.1898170
  10.3568480  62.7526000  14.0617390   9.8930380  61.7809650  15.1260160
   6.4795250  54.8691970  15.4851800   6.8980130  54.6822950  14.6448460
   6.1731310  54.0171020  15.7954730   9.9784980  59.7816110  19.1827600
   9.6028580  59.0144040  18.7508890   9.2488100  60.1638810  19.6702530
   9.3684600  58.9287630  28.8167120   9.1370690  58.7000380  27.9165070
   9.6289150  59.8487180  28.7712010   7.8072670  54.1544060  31.5946820
   8.6842850  54.1627460  31.9780820   7.8193510  53.4174900  30.9839170
   9.2535940  58.0073600  22.4834840   9.7773420  57.5136250  21.8525010
   9.8395360  58.1423960  23.2282410   9.4325660  58.0913470  26.0054390
   8.4828370  58.0577010  26.1199380   9.6138670  59.0013580  25.7704160
   8.7435910  57.2646950  18.4227250   9.2395030  57.0317820  19.2076130
   8.5451980  56.4258790  18.0064890  10.1723070  55.9007900  20.9564930
  10.0622350  55.7463940  21.8947200  10.9330660  55.3728840  20.7140340
   8.5188790  51.8402030  27.4147930   9.1561010  52.4536170  27.7807120
   8.6663680  51.8762690  26.4697160  11.0613340  53.7315820  14.1971070
  11.9862650  53.5997000  13.9889360  11.0389130  53.8108640  15.1507520
  11.1351830  54.5026480  16.8227780  10.3403330  54.4371600  17.3520690
  11.3395110  55.4377120  16.8113130   8.0770250  68.5418030  20.8166170
   8.6729320  68.2202600  20.1400590   8.3348400  68.0689850  21.6079440
   1.8893270  52.9928220  30.3223030   1.8282160  53.5850050  31.0718440
   2.8293650  52.8854180  30.1773290   4.5267830  52.6498280  29.9615320
   5.1408240  52.9677570  29.2996400   5.0717390  52.1646870  30.5811180
  10.9443010  68.5489910  27.3677160  10.4501290  68.9458780  26.6504290
  10.3356300  67.9239120  27.7614440   5.2675870  51.2130420  26.2884610
   4.3935710  51.5465530  26.0857540   5.1586620  50.7403600  27.1136480
   6.1747850  53.4201290  27.6726330   5.8461210  52.6053050  27.2928060
   7.1230150  53.3771100  27.5492020   8.6282460  69.1913330  24.6463900
   8.1685430  69.9429140  24.2721920   7.9994920  68.4719800  24.5878700
   1.7973680  68.3910060  24.6481010   2.0851490  68.1364360  23.7714020
   2.3096900  67.8387420  25.2386580   3.0150690  52.1300260  25.2277520
   2.2322480  52.6045760  25.5074280   2.7213620  51.2255090  25.1190700
   7.5671760  52.8323360  23.2726610   8.0079850  52.7768460  22.4248210
   7.2979350  53.7481370  23.3436790   9.4310330  52.4638600  21.2835430
   9.3698730  51.5199820  21.1366450  10.2102360  52.5718690  21.8288890
   5.4029890  51.2129460  21.9776620   6.0059260  51.7849670  22.4525140
   4.6622880  51.7768900  21.7550520   8.5464490  51.6151020  17.2516900
   8.7415120  52.5134470  17.5184330   7.7594360  51.3838100  17.7449850
   1.8646040  69.3126160  32.0149210   2.7913350  69.0770430  32.0585170
   1.8496470  70.1398160  31.5335240  10.0991100  68.8551730  19.0123460
  10.2743290  68.1689470  18.3684380   9.4012670  69.3798780  18.6200130
   5.6525110  51.3924490  32.3571560   5.5390560  51.7119100  33.2523080
   6.4694850  51.7937000  32.0608840   8.4323600  68.5396020  31.8390250
   9.2248920  68.0445250  31.6316210   8.7256750  69.2186160  32.4465860
   4.5583260  59.4116960   2.7206300   4.4777310  58.4971570   2.4498010
   4.1447680  59.9084030   2.0146010   2.6901300  61.1895980   4.6015570
   1.9143400  60.7096420   4.8914140   3.3414230  60.5101630   4.4271730
   6.7108730  65.5956170   3.3814700   6.2490260  64.8243410   3.7101870
   7.5234280  65.6222240   3.8867150   2.9372040  67.8814180   3.0018690
   2.3183480  68.3371680   2.4313130   3.7923820  68.0365640   2.6008390
   2.1310290  63.8653170   4.6085730   2.0618570  62.9243110   4.4474860
   2.8930150  63.9554580   5.1808300   3.1615460  56.6723550   4.8354660
   3.5380280  55.7995430   4.7228330   3.0634970  57.0082250   3.9445100
   6.9439580  54.1673990   1.7683000   7.7649200  53.6770560   1.8108480
   6.9773660  54.7571650   2.5214840  11.2339130  56.1840740   8.3326630
  10.5291300  56.5722450   7.8141740  11.4997050  56.8791030   8.9347560
   7.1801060  56.1074370   4.5410540   6.4756630  56.3959260   5.1213650
   7.5413220  56.9174480   4.1810100   8.7963840  65.7249500   6.8038020
   8.1127360  66.3948610   6.7954690   9.3358130  65.9230150   6.0382880
  10.2487980  55.5529160   4.9319750   9.3012890  55.5868140   5.0635180
  10.5737970  56.3668110   5.3169110   6.3322580  67.5693630   5.5183200
   6.3449740  67.1655920   4.6505460   5.7797800  68.3440920   5.4144630
   5.7308020  62.4723470   6.8465810   6.1476810  62.2583580   6.0119270
   6.4547840  62.7296260   7.4174430   9.6770120  60.8710690   6.9382050
   8.8488750  60.9403780   6.4632180  10.2720600  61.4565000   6.4697880
   6.6412130  57.6580010   7.8836920   6.2283310  58.4833720   8.1376910
   5.9088080  57.0725050   7.6913280   7.3312230  67.7039340   8.5717900
   6.8542790  68.5111530   8.3790510   6.6474020  67.0517670   8.7244110
  10.9111440  67.4651280  13.6409290  11.3871160  67.9434170  14.3198370
  11.5318600  67.3968770  12.9154790  10.3144690  64.6564130  10.8009300
  10.4407750  64.4176010   9.8826480  10.3566070  63.8248670  11.2731380
   4.1761430  68.3592130   9.3704110   4.6906100  68.2700140  10.1726540
   3.3330510  68.7051830   9.6632020  10.1668700  56.7096590  11.7659040
   9.5512970  57.2176260  11.2374500   9.8465120  55.8094920  11.7084980
   2.2283020  55.5488480   9.2321230   1.7662390  55.7571500  10.0441170
   1.8261130  54.7347830   8.9291900   7.2287530  56.7697430  10.3617890
   6.3781120  56.4703180  10.6826960   7.0689320  57.0139440   9.4501710
   4.3237240  58.2699180  12.4616680   4.6490650  57.4362930  12.1218910
   5.1117570  58.7927700  12.6095010   4.1545200  59.0386190   6.0811870
   3.4226320  59.5473000   6.4301970   3.7569540  58.2216170   5.7800650
   4.6171110  54.4919870   5.4934810   4.6343850  54.9428520   6.3376660
   4.3686690  53.5925510   5.7068250   8.0441860  51.9052050  11.3321190
   8.3687630  51.1741710  11.8579170   8.0798370  51.5865690  10.4302180
   7.9699700  62.0177160   4.9407220   8.6898820  62.5132450   4.5503330
   7.7681520  61.3395050   4.2961090   3.3518500  62.0886220  10.8276220
   3.2855810  61.1681890  10.5733810   2.7223640  62.1861660  11.5420860
   3.2835230  64.9106790  10.5780020   3.2979770  63.9787750  10.3598930
   2.5760330  64.9966550  11.2169790   9.4946440  61.5514130   9.9248600
   8.7694630  62.1442910   9.7277990  10.0221900  61.5437670   9.1261970
   5.0246030  63.2774300   3.4232450   5.3769850  62.6802430   2.7633820
   4.1408360  62.9518530   3.5940700   2.7169130  66.5524360   7.6720520
   3.3611350  66.7583740   8.3493940   3.0798570  65.7912760   7.2191370
   3.9901210  64.5556710   6.3897970   4.6323440  63.8549870   6.5030140
   4.5150560  65.3355150   6.2094860   5.7638830  65.3551610   9.5934030
   6.0995070  65.9418300  10.2711950   4.8439170  65.2244320   9.8231820
   4.8081010  55.6369100   8.1258890   5.1761830  54.8164310   8.4538460
   3.9479210  55.6970990   8.5414540   1.7683000  58.2908690   8.3496860
   2.2668250  58.7654510   9.0148710   1.9105950  57.3672210   8.5566890
   8.9749860  54.5076650   9.1925250   8.4723460  55.2482050   9.5319060
   9.7906520  54.8960650   8.8762040   7.2671870  59.7509830   2.6386610
   6.3262010  59.7660060   2.8134300   7.5815940  58.9645790   3.0846910
   9.2697450  66.9218680   4.3140870   9.3944870  67.7449850   4.7864680
  10.1363010  66.7109410   3.9665020   4.5837890  64.3075830  13.1218990
   3.9776050  64.3307430  12.3814740   4.2792000  63.5758870  13.6586240
   6.0138260  68.0356120  11.7328400   6.9660010  67.9514140  11.6828640
   5.8666480  68.6997830  12.4062190   7.6632360  63.8245740  12.2090170
   8.4041830  64.1621500  11.7057630   6.9005040  63.9937800  11.6559940
   6.3378020  61.8760570  10.7445380   6.7519040  62.0305650  11.5935800
   5.4029020  62.0015790  10.9071160   6.8100190  59.2156730  12.7484530
   7.3920960  58.4609050  12.6605010   6.9861960  59.7464170  11.9716010
   3.4357150  59.5597230  10.0979150   3.5553360  58.9638370  10.8373990
   4.2951150  59.5966920   9.6780450   5.7745050  60.1134420   8.6741660
   5.2480270  60.6377040   8.0706800   6.1176390  60.7461810   9.3051390
   5.0219350  55.7184390  11.5887990   4.3334870  55.0565930  11.5237980
   5.7425370  55.2722660  12.0336450   9.3342560  67.0647450  10.4178250
   8.7344550  67.1240010   9.6742170   9.4636460  66.1252430  10.5475100
  11.0360440  62.4062850   3.1024090  11.4069270  61.6230170   2.6960060
  11.6762370  63.0951950   2.9241390   8.0194200  63.7899430   8.5154410
   7.2054040  64.2196590   8.7780200   8.4268400  64.4017840   7.9023460
   9.3684600  58.9287630  10.0423630   9.1370690  58.7000380   9.1421580
   9.6289150  59.8487180   9.9968520   7.8072670  54.1544060  12.8203330
   8.6842850  54.1627460  13.2037330   7.8193510  53.4174900  12.2095680
   9.2535940  58.0073600   3.7091350   9.7773420  57.5136250   3.0781520
   9.8395360  58.1423960   4.4538920   9.4325660  58.0913470   7.2310900
   8.4828370  58.0577010   7.3455890   9.6138670  59.0013580   6.9960670
  10.1723070  55.9007900   2.1821440  10.0622350  55.7463940   3.1203710
  10.9330660  55.3728840   1.9396850   8.5188790  51.8402030   8.6404440
   9.1561010  52.4536170   9.0063630   8.6663680  51.8762690   7.6953670
   1.8893270  52.9928220  11.5479540   1.8282160  53.5850050  12.2974950
   2.8293650  52.8854180  11.4029800   4.5267830  52.6498280  11.1871830
   5.1408240  52.9677570  10.5252910   5.0717390  52.1646870  11.8067690
  10.9443010  68.5489910   8.5933670  10.4501290  68.9458780   7.8760800
  10.3356300  67.9239120   8.9870950   5.2675870  51.2130420   7.5141120
   4.3935710  51.5465530   7.3114050   5.1586620  50.7403600   8.3392990
   6.1747850  53.4201290   8.8982840   5.8461210  52.6053050   8.5184570
   7.1230150  53.3771100   8.7748530   8.6282460  69.1913330   5.8720410
   8.1685430  69.9429140   5.4978430   7.9994920  68.4719800   5.8135210
   1.7973680  68.3910060   5.8737520   2.0851490  68.1364360   4.9970530
   2.3096900  67.8387420   6.4643090   3.0150690  52.1300260   6.4534030
   2.2322480  52.6045760   6.7330790   2.7213620  51.2255090   6.3447210
   7.5671760  52.8323360   4.4983120   8.0079850  52.7768460   3.6504720
   7.2979350  53.7481370   4.5693300   9.4310330  52.4638600   2.5091940
   9.3698730  51.5199820   2.3622960  10.2102360  52.5718690   3.0545400
   5.4029890  51.2129460   3.2033130   6.0059260  51.7849670   3.6781650
   4.6622880  51.7768900   2.9807030   1.8646040  69.3126160  13.2405720
   2.7913350  69.0770430  13.2841680   1.8496470  70.1398160  12.7591750
   5.6525110  51.3924490  13.5828070   5.5390560  51.7119100  14.4779590
   6.4694850  51.7937000  13.2865350   8.4323600  68.5396020  13.0646760
   9.2248920  68.0445250  12.8572720   8.7256750  69.2186160  13.6722370
   4.5583260  40.6373470  77.8180260   4.4777310  39.7228080  77.5471970
   4.1447680  41.1340540  77.1119970   2.6901300  42.4152490  79.6989530
   1.9143400  41.9352930  79.9888100   3.3414230  41.7358140  79.5245690
   6.7108730  46.8212680  78.4788660   6.2490260  46.0499920  78.8075830
   7.5234280  46.8478750  78.9841110   2.9372040  49.1070690  78.0992650
   2.3183480  49.5628190  77.5287090   3.7923820  49.2622150  77.6982350
   2.1310290  45.0909680  79.7059690   2.0618570  44.1499620  79.5448820
   2.8930150  45.1811090  80.2782260   3.1615460  37.8980060  79.9328620
   3.5380280  37.0251940  79.8202290   3.0634970  38.2338760  79.0419060
   6.9439580  35.3930500  76.8656960   7.7649200  34.9027070  76.9082440
   6.9773660  35.9828160  77.6188800   3.8035390  43.9909930  75.4924560
   3.1852660  44.4559380  74.9287280   4.3158640  44.6837410  75.9094070
   7.1801060  37.3330880  79.6384500   6.4756630  37.6215770  80.2187610
   7.5413220  38.1430990  79.2784060   8.7963840  46.9506010  81.9011980
   8.1127360  47.6205120  81.8928650   9.3358130  47.1486660  81.1356840
  10.2487980  36.7785670  80.0293710   9.3012890  36.8124650  80.1609140
  10.5737970  37.5924620  80.4143070   6.3322580  48.7950140  80.6157160
   6.3449740  48.3912430  79.7479420   5.7797800  49.5697430  80.5118590
   7.6268000  45.5166360  75.7047330   7.5164330  44.5740690  75.8296750
   7.6236250  45.8782000  76.5910090   3.1688280  41.1431680  75.0609820
   2.2417560  41.0769060  75.2898290   3.3213100  42.0811810  74.9465060
   3.1557360  37.4148680  72.0576980   2.2161030  37.5762640  72.1429440
   3.4740620  38.1334360  71.5112970   9.6770120  42.0967200  82.0356010
   8.8488750  42.1660290  81.5606140  10.2720600  42.6821510  81.5671840
   7.1985570  42.7051980  75.5645070   6.5797990  42.3671530  74.9171370
   7.1810020  42.0611740  76.2724260   5.3750270  41.9438790  72.5717820
   5.8143550  41.1061220  72.4255640   6.0878690  42.5768190  72.6581960
   3.4845650  46.8834860  76.5399060   3.9241560  47.6259190  76.1254450
   3.4232540  47.1261430  77.4638020   8.9567410  33.1981600  70.8858860
   8.6440070  33.2908430  71.7857930   9.7179880  33.7762630  70.8356290
   6.1515830  49.8703980  73.8962070   5.9916970  49.5806920  74.7943900
   5.9862540  49.0944110  73.3607300   5.8541960  47.3791540  72.4560070
   5.1607120  47.3768830  71.7962350   6.5964820  46.9550860  72.0254240
   5.4191890  49.0054250  76.5308560   5.8748840  48.2243630  76.8447180
   5.7584410  49.7161070  77.0749740   4.9625190  39.0373410  75.0531770
   4.3634080  39.7609210  74.8695390   5.5104800  38.9750190  74.2708220
   3.5690060  37.6736950  77.0835050   3.9619630  37.9909150  76.2703740
   3.9306910  36.7948830  77.1979570   4.1545200  40.2642700  81.1785830
   3.4226320  40.7729510  81.5275930   3.7569540  39.4472680  80.8774610
   4.6171110  35.7176380  80.5908770   4.6343850  36.1685030  81.4350620
   4.3686690  34.8182020  80.8042210   7.9699700  43.2433670  80.0381180
   8.6898820  43.7388960  79.6477290   7.7681520  42.5651560  79.3935050
   3.4309640  34.6371630  74.1810570   2.6174250  34.1384800  74.1055880
   3.2371590  35.4769880  73.7646920   6.1458030  39.0091280  72.4772730
   7.0337650  39.3208510  72.3024070   6.1163120  38.1363530  72.0853310
   8.4172300  40.3203120  71.9452590   8.3336020  40.7517340  71.0949030
   9.1366490  40.7801470  72.3779410   9.4459550  47.1745380  74.6734720
   8.8035710  46.5201000  74.9478440   9.0590210  47.5800470  73.8975390
   5.0246030  44.5030810  78.5206410   5.3769850  43.9058940  77.8607780
   4.1408360  44.1775040  78.6914660   3.9901210  45.7813220  81.4871930
   4.6323440  45.0806380  81.6004100   4.5150560  46.5611660  81.3068820
   7.8356930  46.0661840  71.2111070   7.6094510  45.3492280  71.8035710
   7.4453130  45.8174280  70.3732820   7.4173180  43.9833780  72.8725230
   7.1294880  44.4446470  73.6603110   8.2125350  43.5231550  73.1409450
   8.1743040  35.8182550  74.0320410   7.5456200  35.9228220  73.3178640
   7.6794960  36.0379330  74.8214290   2.6201180  47.5388140  71.4654390
   2.7213160  47.3352130  70.5356370   1.7202920  47.2846420  71.6702170
   4.1742500  34.8219160  76.8874080   4.0510280  34.8405290  75.9383590
   5.1227060  34.8698100  77.0072480   7.2671870  40.9766340  77.7360570
   6.3262010  40.9916570  77.9108260   7.5815940  40.1902300  78.1820870
   9.2697450  48.1475190  79.4114830   9.3944870  48.9706360  79.8838640
  10.1363010  47.9365920  79.0638980   8.9047460  48.6406840  72.3294270
   8.6188970  48.2271980  71.5148450   8.7067010  49.5694550  72.2094790
   3.6097420  43.6960150  71.3741870   3.0607520  44.1429450  72.0184610
   4.2316680  43.1909400  71.8979540   1.7900180  41.6788680  70.5184270
   2.3105840  40.9637700  70.1525420   2.4368580  42.3174550  70.8184780
   5.6519750  33.5392530  72.7452210   5.9322040  32.6960430  73.1011630
   4.8785480  33.7715640  73.2590960   2.3548210  49.7600290  72.8086010
   3.2499000  50.0985260  72.8304770   2.3865840  49.0379700  72.1810290
  10.5744010  46.0321780  70.8521920   9.7436970  46.0998430  71.3229150
  10.7515840  46.9225900  70.5488780  10.0300470  42.7769260  73.3556120
  10.7919380  43.3465910  73.4615810  10.0454840  42.2096460  74.1264430
  11.0360440  43.6319360  78.1998050  11.4069270  42.8486680  77.7934020
  11.6762370  44.3208460  78.0215350  10.0819640  43.0703630  70.5128640
  10.3568480  43.9782510  70.3847860   9.8930380  43.0066160  71.4490630
   6.4795250  36.0948480  71.8082270   6.8980130  35.9079460  70.9678930
   6.1731310  35.2427530  72.1185200   9.9784980  41.0072620  75.5058070
   9.6028580  40.2400550  75.0739360   9.2488100  41.3895320  75.9933000
   9.2535940  39.2330110  78.8065310   9.7773420  38.7392760  78.1755480
   9.8395360  39.3680470  79.5512880   8.7435910  38.4903460  74.7457720
   9.2395030  38.2574330  75.5306600   8.5451980  37.6515300  74.3295360
  10.1723070  37.1264410  77.2795400  10.0622350  36.9720450  78.2177670
  10.9330660  36.5985350  77.0370810  11.0613340  34.9572330  70.5201540
  11.9862650  34.8253510  70.3119830  11.0389130  35.0365150  71.4737990
  11.1351830  35.7282990  73.1458250  10.3403330  35.6628110  73.6751160
  11.3395110  36.6633630  73.1343600   8.0770250  49.7674540  77.1396640
   8.6729320  49.4459110  76.4631060   8.3348400  49.2946360  77.9309910
   8.6282460  50.4169840  80.9694370   8.1685430  51.1685650  80.5952390
   7.9994920  49.6976310  80.9109170   1.7973680  49.6166570  80.9711480
   2.0851490  49.3620870  80.0944490   2.3096900  49.0643930  81.5617050
   3.0150690  33.3556770  81.5507990   2.2322480  33.8302270  81.8304750
   2.7213620  32.4511600  81.4421170   7.5671760  34.0579870  79.5957080
   8.0079850  34.0024970  78.7478680   7.2979350  34.9737880  79.6667260
   9.4310330  33.6895110  77.6065900   9.3698730  32.7456330  77.4596920
  10.2102360  33.7975200  78.1519360   5.4029890  32.4385970  78.3007090
   6.0059260  33.0106180  78.7755610   4.6622880  33.0025410  78.0780990
   8.5464490  32.8407530  73.5747370   8.7415120  33.7390980  73.8414800
   7.7594360  32.6094610  74.0680320  10.0991100  50.0808240  75.3353930
  10.2743290  49.3945980  74.6914850   9.4012670  50.6055290  74.9430600
   4.5583260  40.6373470  59.0436770   4.4777310  39.7228080  58.7728480
   4.1447680  41.1340540  58.3376480   2.6901300  42.4152490  60.9246040
   1.9143400  41.9352930  61.2144610   3.3414230  41.7358140  60.7502200
   6.7108730  46.8212680  59.7045170   6.2490260  46.0499920  60.0332340
   7.5234280  46.8478750  60.2097620   2.9372040  49.1070690  59.3249160
   2.3183480  49.5628190  58.7543600   3.7923820  49.2622150  58.9238860
   2.1310290  45.0909680  60.9316200   2.0618570  44.1499620  60.7705330
   2.8930150  45.1811090  61.5038770   3.1615460  37.8980060  61.1585130
   3.5380280  37.0251940  61.0458800   3.0634970  38.2338760  60.2675570
   6.9439580  35.3930500  58.0913470   7.7649200  34.9027070  58.1338950
   6.9773660  35.9828160  58.8445310  11.2339130  37.4097250  64.6557100
  10.5291300  37.7978960  64.1372210  11.4997050  38.1047540  65.2578030
   3.8035390  43.9909930  56.7181070   3.1852660  44.4559380  56.1543790
   4.3158640  44.6837410  57.1350580   7.1801060  37.3330880  60.8641010
   6.4756630  37.6215770  61.4444120   7.5413220  38.1430990  60.5040570
   8.7963840  46.9506010  63.1268490   8.1127360  47.6205120  63.1185160
   9.3358130  47.1486660  62.3613350  10.2487980  36.7785670  61.2550220
   9.3012890  36.8124650  61.3865650  10.5737970  37.5924620  61.6399580
   6.3322580  48.7950140  61.8413670   6.3449740  48.3912430  60.9735930
   5.7797800  49.5697430  61.7375100   7.6268000  45.5166360  56.9303840
   7.5164330  44.5740690  57.0553260   7.6236250  45.8782000  57.8166600
   5.7308020  43.6979980  63.1696280   6.1476810  43.4840090  62.3349740
   6.4547840  43.9552770  63.7404900   3.1688280  41.1431680  56.2866330
   2.2417560  41.0769060  56.5154800   3.3213100  42.0811810  56.1721570
   3.1557360  37.4148680  53.2833490   2.2161030  37.5762640  53.3685950
   3.4740620  38.1334360  52.7369480   9.6770120  42.0967200  63.2612520
   8.8488750  42.1660290  62.7862650  10.2720600  42.6821510  62.7928350
   7.1985570  42.7051980  56.7901580   6.5797990  42.3671530  56.1427880
   7.1810020  42.0611740  57.4980770   6.6412130  38.8836520  64.2067390
   6.2283310  39.7090230  64.4607380   5.9088080  38.2981560  64.0143750
   7.3312230  48.9295850  64.8948370   6.8542790  49.7368040  64.7020980
   6.6474020  48.2774180  65.0474580   5.3750270  41.9438790  53.7974330
   5.8143550  41.1061220  53.6512150   6.0878690  42.5768190  53.8838470
   3.4845650  46.8834860  57.7655570   3.9241560  47.6259190  57.3510960
   3.4232540  47.1261430  58.6894530   8.9567410  33.1981600  52.1115370
   8.6440070  33.2908430  53.0114440   9.7179880  33.7762630  52.0612800
  10.9111440  48.6907790  69.9639760  11.3871160  49.1690680  70.6428840
  11.5318600  48.6225280  69.2385260  10.3144690  45.8820640  67.1239770
  10.4407750  45.6432520  66.2056950  10.3566070  45.0505180  67.5961850
   4.1761430  49.5848640  65.6934580   4.6906100  49.4956650  66.4957010
   3.3330510  49.9308340  65.9862490   6.1515830  49.8703980  55.1218580
   5.9916970  49.5806920  56.0200410   5.9862540  49.0944110  54.5863810
   5.8541960  47.3791540  53.6816580   5.1607120  47.3768830  53.0218860
   6.5964820  46.9550860  53.2510750   5.4191890  49.0054250  57.7565070
   5.8748840  48.2243630  58.0703690   5.7584410  49.7161070  58.3006250
  10.1668700  37.9353100  68.0889510   9.5512970  38.4432770  67.5604970
   9.8465120  37.0351430  68.0315450   2.2283020  36.7744990  65.5551700
   1.7662390  36.9828010  66.3671640   1.8261130  35.9604340  65.2522370
   7.2287530  37.9953940  66.6848360   6.3781120  37.6959690  67.0057430
   7.0689320  38.2395950  65.7732180   4.3237240  39.4955690  68.7847150
   4.6490650  38.6619440  68.4449380   5.1117570  40.0184210  68.9325480
   4.9625190  39.0373410  56.2788280   4.3634080  39.7609210  56.0951900
   5.5104800  38.9750190  55.4964730   3.5690060  37.6736950  58.3091560
   3.9619630  37.9909150  57.4960250   3.9306910  36.7948830  58.4236080
   4.1545200  40.2642700  62.4042340   3.4226320  40.7729510  62.7532440
   3.7569540  39.4472680  62.1031120   4.6171110  35.7176380  61.8165280
   4.6343850  36.1685030  62.6607130   4.3686690  34.8182020  62.0298720
   8.0441860  33.1308560  67.6551660   8.3687630  32.3998220  68.1809640
   8.0798370  32.8122200  66.7532650   7.9699700  43.2433670  61.2637690
   8.6898820  43.7388960  60.8733800   7.7681520  42.5651560  60.6191560
   3.4309640  34.6371630  55.4067080   2.6174250  34.1384800  55.3312390
   3.2371590  35.4769880  54.9903430   3.3518500  43.3142730  67.1506690
   3.2855810  42.3938400  66.8964280   2.7223640  43.4118170  67.8651330
   6.1458030  39.0091280  53.7029240   7.0337650  39.3208510  53.5280580
   6.1163120  38.1363530  53.3109820   3.2835230  46.1363300  66.9010490
   3.2979770  45.2044260  66.6829400   2.5760330  46.2223060  67.5400260
   8.4172300  40.3203120  53.1709100   8.3336020  40.7517340  52.3205540
   9.1366490  40.7801470  53.6035920   9.4946440  42.7770640  66.2479070
   8.7694630  43.3699420  66.0508460  10.0221900  42.7694180  65.4492440
   9.4459550  47.1745380  55.8991230   8.8035710  46.5201000  56.1734950
   9.0590210  47.5800470  55.1231900   5.0246030  44.5030810  59.7462920
   5.3769850  43.9058940  59.0864290   4.1408360  44.1775040  59.9171170
   2.7169130  47.7780870  63.9950990   3.3611350  47.9840250  64.6724410
   3.0798570  47.0169270  63.5421840   3.9901210  45.7813220  62.7128440
   4.6323440  45.0806380  62.8260610   4.5150560  46.5611660  62.5325330
   7.8356930  46.0661840  52.4367580   7.6094510  45.3492280  53.0292220
   7.4453130  45.8174280  51.5989330   5.7638830  46.5808120  65.9164500
   6.0995070  47.1674810  66.5942420   4.8439170  46.4500830  66.1462290
   7.4173180  43.9833780  54.0981740   7.1294880  44.4446470  54.8859620
   8.2125350  43.5231550  54.3665960   4.8081010  36.8625610  64.4489360
   5.1761830  36.0420820  64.7768930   3.9479210  36.9227500  64.8645010
   8.1743040  35.8182550  55.2576920   7.5456200  35.9228220  54.5435150
   7.6794960  36.0379330  56.0470800   2.6201180  47.5388140  52.6910900
   2.7213160  47.3352130  51.7612880   1.7202920  47.2846420  52.8958680
   1.7683000  39.5165200  64.6727330   2.2668250  39.9911020  65.3379180
   1.9105950  38.5928720  64.8797360   4.1742500  34.8219160  58.1130590
   4.0510280  34.8405290  57.1640100   5.1227060  34.8698100  58.2328990
   8.9749860  35.7333160  65.5155720   8.4723460  36.4738560  65.8549530
   9.7906520  36.1217160  65.1992510   7.2671870  40.9766340  58.9617080
   6.3262010  40.9916570  59.1364770   7.5815940  40.1902300  59.4077380
   9.2697450  48.1475190  60.6371340   9.3944870  48.9706360  61.1095150
  10.1363010  47.9365920  60.2895490   4.5837890  45.5332340  69.4449460
   3.9776050  45.5563940  68.7045210   4.2792000  44.8015380  69.9816710
   6.0138260  49.2612630  68.0558870   6.9660010  49.1770650  68.0059110
   5.8666480  49.9254340  68.7292660   8.9047460  48.6406840  53.5550780
   8.6188970  48.2271980  52.7404960   8.7067010  49.5694550  53.4351300
   3.6097420  43.6960150  52.5998380   3.0607520  44.1429450  53.2441120
   4.2316680  43.1909400  53.1236050   7.6632360  45.0502250  68.5320640
   8.4041830  45.3878010  68.0288100   6.9005040  45.2194310  67.9790410
   1.7900180  41.6788680  51.7440780   2.3105840  40.9637700  51.3781930
   2.4368580  42.3174550  52.0441290   6.3378020  43.1017080  67.0675850
   6.7519040  43.2562160  67.9166270   5.4029020  43.2272300  67.2301630
   6.8100190  40.4413240  69.0715000   7.3920960  39.6865560  68.9835480
   6.9861960  40.9720680  68.2946480   3.4357150  40.7853740  66.4209620
   3.5553360  40.1894880  67.1604460   4.2951150  40.8223430  66.0010920
   5.7745050  41.3390930  64.9972130   5.2480270  41.8633550  64.3937270
   6.1176390  41.9718320  65.6281860   5.0219350  36.9440900  67.9118460
   4.3334870  36.2822440  67.8468450   5.7425370  36.4979170  68.3566920
   5.6519750  33.5392530  53.9708720   5.9322040  32.6960430  54.3268140
   4.8785480  33.7715640  54.4847470   2.3548210  49.7600290  54.0342520
   3.2499000  50.0985260  54.0561280   2.3865840  49.0379700  53.4066800
   9.3342560  48.2903960  66.7408720   8.7344550  48.3496520  65.9972640
   9.4636460  47.3508940  66.8705570  10.5744010  46.0321780  52.0778430
   9.7436970  46.0998430  52.5485660  10.7515840  46.9225900  51.7745290
  10.0300470  42.7769260  54.5812630  10.7919380  43.3465910  54.6872320
  10.0454840  42.2096460  55.3520940  11.0360440  43.6319360  59.4254560
  11.4069270  42.8486680  59.0190530  11.6762370  44.3208460  59.2471860
   8.0194200  45.0155940  64.8384880   7.2054040  45.4453100  65.1010670
   8.4268400  45.6274350  64.2253930  10.0819640  43.0703630  51.7385150
  10.3568480  43.9782510  51.6104370   9.8930380  43.0066160  52.6747140
   6.4795250  36.0948480  53.0338780   6.8980130  35.9079460  52.1935440
   6.1731310  35.2427530  53.3441710   9.9784980  41.0072620  56.7314580
   9.6028580  40.2400550  56.2995870   9.2488100  41.3895320  57.2189510
   9.3684600  40.1544140  66.3654100   9.1370690  39.9256890  65.4652050
   9.6289150  41.0743690  66.3198990   7.8072670  35.3800570  69.1433800
   8.6842850  35.3883970  69.5267800   7.8193510  34.6431410  68.5326150
   9.2535940  39.2330110  60.0321820   9.7773420  38.7392760  59.4011990
   9.8395360  39.3680470  60.7769390   9.4325660  39.3169980  63.5541370
   8.4828370  39.2833520  63.6686360   9.6138670  40.2270090  63.3191140
   8.7435910  38.4903460  55.9714230   9.2395030  38.2574330  56.7563110
   8.5451980  37.6515300  55.5551870  10.1723070  37.1264410  58.5051910
  10.0622350  36.9720450  59.4434180  10.9330660  36.5985350  58.2627320
   8.5188790  33.0658540  64.9634910   9.1561010  33.6792680  65.3294100
   8.6663680  33.1019200  64.0184140  11.0613340  34.9572330  51.7458050
  11.9862650  34.8253510  51.5376340  11.0389130  35.0365150  52.6994500
  11.1351830  35.7282990  54.3714760  10.3403330  35.6628110  54.9007670
  11.3395110  36.6633630  54.3600110   8.0770250  49.7674540  58.3653150
   8.6729320  49.4459110  57.6887570   8.3348400  49.2946360  59.1566420
   1.8893270  34.2184730  67.8710010   1.8282160  34.8106560  68.6205420
   2.8293650  34.1110690  67.7260270   4.5267830  33.8754790  67.5102300
   5.1408240  34.1934080  66.8483380   5.0717390  33.3903380  68.1298160
  10.9443010  49.7746420  64.9164140  10.4501290  50.1715290  64.1991270
  10.3356300  49.1495630  65.3101420   5.2675870  32.4386930  63.8371590
   4.3935710  32.7722040  63.6344520   5.1586620  31.9660110  64.6623460
   6.1747850  34.6457800  65.2213310   5.8461210  33.8309560  64.8415040
   7.1230150  34.6027610  65.0979000   8.6282460  50.4169840  62.1950880
   8.1685430  51.1685650  61.8208900   7.9994920  49.6976310  62.1365680
   1.7973680  49.6166570  62.1967990   2.0851490  49.3620870  61.3201000
   2.3096900  49.0643930  62.7873560   3.0150690  33.3556770  62.7764500
   2.2322480  33.8302270  63.0561260   2.7213620  32.4511600  62.6677680
   7.5671760  34.0579870  60.8213590   8.0079850  34.0024970  59.9735190
   7.2979350  34.9737880  60.8923770   9.4310330  33.6895110  58.8322410
   9.3698730  32.7456330  58.6853430  10.2102360  33.7975200  59.3775870
   5.4029890  32.4385970  59.5263600   6.0059260  33.0106180  60.0012120
   4.6622880  33.0025410  59.3037500   8.5464490  32.8407530  54.8003880
   8.7415120  33.7390980  55.0671310   7.7594360  32.6094610  55.2936830
   1.8646040  50.5382670  69.5636190   2.7913350  50.3026940  69.6072150
   1.8496470  51.3654670  69.0822220  10.0991100  50.0808240  56.5610440
  10.2743290  49.3945980  55.9171360   9.4012670  50.6055290  56.1687110
   5.6525110  32.6181000  69.9058540   5.5390560  32.9375610  70.8010060
   6.4694850  33.0193510  69.6095820   8.4323600  49.7652530  69.3877230
   9.2248920  49.2701760  69.1803190   8.7256750  50.4442670  69.9952840
   4.5583260  40.6373470  40.2693280   4.4777310  39.7228080  39.9984990
   4.1447680  41.1340540  39.5632990   2.6901300  42.4152490  42.1502550
   1.9143400  41.9352930  42.4401120   3.3414230  41.7358140  41.9758710
   6.7108730  46.8212680  40.9301680   6.2490260  46.0499920  41.2588850
   7.5234280  46.8478750  41.4354130   2.9372040  49.1070690  40.5505670
   2.3183480  49.5628190  39.9800110   3.7923820  49.2622150  40.1495370
   2.1310290  45.0909680  42.1572710   2.0618570  44.1499620  41.9961840
   2.8930150  45.1811090  42.7295280   3.1615460  37.8980060  42.3841640
   3.5380280  37.0251940  42.2715310   3.0634970  38.2338760  41.4932080
   6.9439580  35.3930500  39.3169980   7.7649200  34.9027070  39.3595460
   6.9773660  35.9828160  40.0701820  11.2339130  37.4097250  45.8813610
  10.5291300  37.7978960  45.3628720  11.4997050  38.1047540  46.4834540
   3.8035390  43.9909930  37.9437580   3.1852660  44.4559380  37.3800300
   4.3158640  44.6837410  38.3607090   7.1801060  37.3330880  42.0897520
   6.4756630  37.6215770  42.6700630   7.5413220  38.1430990  41.7297080
   8.7963840  46.9506010  44.3525000   8.1127360  47.6205120  44.3441670
   9.3358130  47.1486660  43.5869860  10.2487980  36.7785670  42.4806730
   9.3012890  36.8124650  42.6122160  10.5737970  37.5924620  42.8656090
   6.3322580  48.7950140  43.0670180   6.3449740  48.3912430  42.1992440
   5.7797800  49.5697430  42.9631610   7.6268000  45.5166360  38.1560350
   7.5164330  44.5740690  38.2809770   7.6236250  45.8782000  39.0423110
   5.7308020  43.6979980  44.3952790   6.1476810  43.4840090  43.5606250
   6.4547840  43.9552770  44.9661410   3.1688280  41.1431680  37.5122840
   2.2417560  41.0769060  37.7411310   3.3213100  42.0811810  37.3978080
   3.1557360  37.4148680  34.5090000   2.2161030  37.5762640  34.5942460
   3.4740620  38.1334360  33.9625990   9.6770120  42.0967200  44.4869030
   8.8488750  42.1660290  44.0119160  10.2720600  42.6821510  44.0184860
   7.1985570  42.7051980  38.0158090   6.5797990  42.3671530  37.3684390
   7.1810020  42.0611740  38.7237280   6.6412130  38.8836520  45.4323900
   6.2283310  39.7090230  45.6863890   5.9088080  38.2981560  45.2400260
   7.3312230  48.9295850  46.1204880   6.8542790  49.7368040  45.9277490
   6.6474020  48.2774180  46.2731090   5.3750270  41.9438790  35.0230840
   5.8143550  41.1061220  34.8768660   6.0878690  42.5768190  35.1094980
   3.4845650  46.8834860  38.9912080   3.9241560  47.6259190  38.5767470
   3.4232540  47.1261430  39.9151040   8.9567410  33.1981600  33.3371880
   8.6440070  33.2908430  34.2370950   9.7179880  33.7762630  33.2869310
  10.9111440  48.6907790  51.1896270  11.3871160  49.1690680  51.8685350
  11.5318600  48.6225280  50.4641770  10.3144690  45.8820640  48.3496280
  10.4407750  45.6432520  47.4313460  10.3566070  45.0505180  48.8218360
   4.1761430  49.5848640  46.9191090   4.6906100  49.4956650  47.7213520
   3.3330510  49.9308340  47.2119000   6.1515830  49.8703980  36.3475090
   5.9916970  49.5806920  37.2456920   5.9862540  49.0944110  35.8120320
   5.8541960  47.3791540  34.9073090   5.1607120  47.3768830  34.2475370
   6.5964820  46.9550860  34.4767260   5.4191890  49.0054250  38.9821580
   5.8748840  48.2243630  39.2960200   5.7584410  49.7161070  39.5262760
  10.1668700  37.9353100  49.3146020   9.5512970  38.4432770  48.7861480
   9.8465120  37.0351430  49.2571960   2.2283020  36.7744990  46.7808210
   1.7662390  36.9828010  47.5928150   1.8261130  35.9604340  46.4778880
   7.2287530  37.9953940  47.9104870   6.3781120  37.6959690  48.2313940
   7.0689320  38.2395950  46.9988690   4.3237240  39.4955690  50.0103660
   4.6490650  38.6619440  49.6705890   5.1117570  40.0184210  50.1581990
   4.9625190  39.0373410  37.5044790   4.3634080  39.7609210  37.3208410
   5.5104800  38.9750190  36.7221240   3.5690060  37.6736950  39.5348070
   3.9619630  37.9909150  38.7216760   3.9306910  36.7948830  39.6492590
   4.1545200  40.2642700  43.6298850   3.4226320  40.7729510  43.9788950
   3.7569540  39.4472680  43.3287630   4.6171110  35.7176380  43.0421790
   4.6343850  36.1685030  43.8863640   4.3686690  34.8182020  43.2555230
   8.0441860  33.1308560  48.8808170   8.3687630  32.3998220  49.4066150
   8.0798370  32.8122200  47.9789160   7.9699700  43.2433670  42.4894200
   8.6898820  43.7388960  42.0990310   7.7681520  42.5651560  41.8448070
   3.4309640  34.6371630  36.6323590   2.6174250  34.1384800  36.5568900
   3.2371590  35.4769880  36.2159940   3.3518500  43.3142730  48.3763200
   3.2855810  42.3938400  48.1220790   2.7223640  43.4118170  49.0907840
   6.1458030  39.0091280  34.9285750   7.0337650  39.3208510  34.7537090
   6.1163120  38.1363530  34.5366330   3.2835230  46.1363300  48.1267000
   3.2979770  45.2044260  47.9085910   2.5760330  46.2223060  48.7656770
   8.4172300  40.3203120  34.3965610   8.3336020  40.7517340  33.5462050
   9.1366490  40.7801470  34.8292430   9.4946440  42.7770640  47.4735580
   8.7694630  43.3699420  47.2764970  10.0221900  42.7694180  46.6748950
   9.4459550  47.1745380  37.1247740   8.8035710  46.5201000  37.3991460
   9.0590210  47.5800470  36.3488410   5.0246030  44.5030810  40.9719430
   5.3769850  43.9058940  40.3120800   4.1408360  44.1775040  41.1427680
   2.7169130  47.7780870  45.2207500   3.3611350  47.9840250  45.8980920
   3.0798570  47.0169270  44.7678350   3.9901210  45.7813220  43.9384950
   4.6323440  45.0806380  44.0517120   4.5150560  46.5611660  43.7581840
   7.8356930  46.0661840  33.6624090   7.6094510  45.3492280  34.2548730
   7.4453130  45.8174280  32.8245840   5.7638830  46.5808120  47.1421010
   6.0995070  47.1674810  47.8198930   4.8439170  46.4500830  47.3718800
   7.4173180  43.9833780  35.3238250   7.1294880  44.4446470  36.1116130
   8.2125350  43.5231550  35.5922470   4.8081010  36.8625610  45.6745870
   5.1761830  36.0420820  46.0025440   3.9479210  36.9227500  46.0901520
   8.1743040  35.8182550  36.4833430   7.5456200  35.9228220  35.7691660
   7.6794960  36.0379330  37.2727310   2.6201180  47.5388140  33.9167410
   2.7213160  47.3352130  32.9869390   1.7202920  47.2846420  34.1215190
   1.7683000  39.5165200  45.8983840   2.2668250  39.9911020  46.5635690
   1.9105950  38.5928720  46.1053870   4.1742500  34.8219160  39.3387100
   4.0510280  34.8405290  38.3896610   5.1227060  34.8698100  39.4585500
   8.9749860  35.7333160  46.7412230   8.4723460  36.4738560  47.0806040
   9.7906520  36.1217160  46.4249020   7.2671870  40.9766340  40.1873590
   6.3262010  40.9916570  40.3621280   7.5815940  40.1902300  40.6333890
   9.2697450  48.1475190  41.8627850   9.3944870  48.9706360  42.3351660
  10.1363010  47.9365920  41.5152000   4.5837890  45.5332340  50.6705970
   3.9776050  45.5563940  49.9301720   4.2792000  44.8015380  51.2073220
   6.0138260  49.2612630  49.2815380   6.9660010  49.1770650  49.2315620
   5.8666480  49.9254340  49.9549170   8.9047460  48.6406840  34.7807290
   8.6188970  48.2271980  33.9661470   8.7067010  49.5694550  34.6607810
   3.6097420  43.6960150  33.8254890   3.0607520  44.1429450  34.4697630
   4.2316680  43.1909400  34.3492560   7.6632360  45.0502250  49.7577150
   8.4041830  45.3878010  49.2544610   6.9005040  45.2194310  49.2046920
   1.7900180  41.6788680  32.9697290   2.3105840  40.9637700  32.6038440
   2.4368580  42.3174550  33.2697800   6.3378020  43.1017080  48.2932360
   6.7519040  43.2562160  49.1422780   5.4029020  43.2272300  48.4558140
   6.8100190  40.4413240  50.2971510   7.3920960  39.6865560  50.2091990
   6.9861960  40.9720680  49.5202990   3.4357150  40.7853740  47.6466130
   3.5553360  40.1894880  48.3860970   4.2951150  40.8223430  47.2267430
   5.7745050  41.3390930  46.2228640   5.2480270  41.8633550  45.6193780
   6.1176390  41.9718320  46.8538370   5.0219350  36.9440900  49.1374970
   4.3334870  36.2822440  49.0724960   5.7425370  36.4979170  49.5823430
   5.6519750  33.5392530  35.1965230   5.9322040  32.6960430  35.5524650
   4.8785480  33.7715640  35.7103980   2.3548210  49.7600290  35.2599030
   3.2499000  50.0985260  35.2817790   2.3865840  49.0379700  34.6323310
   9.3342560  48.2903960  47.9665230   8.7344550  48.3496520  47.2229150
   9.4636460  47.3508940  48.0962080  10.5744010  46.0321780  33.3034940
   9.7436970  46.0998430  33.7742170  10.7515840  46.9225900  33.0001800
  10.0300470  42.7769260  35.8069140  10.7919380  43.3465910  35.9128830
  10.0454840  42.2096460  36.5777450  11.0360440  43.6319360  40.6511070
  11.4069270  42.8486680  40.2447040  11.6762370  44.3208460  40.4728370
   8.0194200  45.0155940  46.0641390   7.2054040  45.4453100  46.3267180
   8.4268400  45.6274350  45.4510440  10.0819640  43.0703630  32.9641660
  10.3568480  43.9782510  32.8360880   9.8930380  43.0066160  33.9003650
   6.4795250  36.0948480  34.2595290   6.8980130  35.9079460  33.4191950
   6.1731310  35.2427530  34.5698220   9.9784980  41.0072620  37.9571090
   9.6028580  40.2400550  37.5252380   9.2488100  41.3895320  38.4446020
   9.3684600  40.1544140  47.5910610   9.1370690  39.9256890  46.6908560
   9.6289150  41.0743690  47.5455500   7.8072670  35.3800570  50.3690310
   8.6842850  35.3883970  50.7524310   7.8193510  34.6431410  49.7582660
   9.2535940  39.2330110  41.2578330   9.7773420  38.7392760  40.6268500
   9.8395360  39.3680470  42.0025900   9.4325660  39.3169980  44.7797880
   8.4828370  39.2833520  44.8942870   9.6138670  40.2270090  44.5447650
   8.7435910  38.4903460  37.1970740   9.2395030  38.2574330  37.9819620
   8.5451980  37.6515300  36.7808380  10.1723070  37.1264410  39.7308420
  10.0622350  36.9720450  40.6690690  10.9330660  36.5985350  39.4883830
   8.5188790  33.0658540  46.1891420   9.1561010  33.6792680  46.5550610
   8.6663680  33.1019200  45.2440650  11.0613340  34.9572330  32.9714560
  11.9862650  34.8253510  32.7632850  11.0389130  35.0365150  33.9251010
   8.0770250  49.7674540  39.5909660   8.6729320  49.4459110  38.9144080
   8.3348400  49.2946360  40.3822930   1.8893270  34.2184730  49.0966520
   1.8282160  34.8106560  49.8461930   2.8293650  34.1110690  48.9516780
   4.5267830  33.8754790  48.7358810   5.1408240  34.1934080  48.0739890
   5.0717390  33.3903380  49.3554670  10.9443010  49.7746420  46.1420650
  10.4501290  50.1715290  45.4247780  10.3356300  49.1495630  46.5357930
   5.2675870  32.4386930  45.0628100   4.3935710  32.7722040  44.8601030
   5.1586620  31.9660110  45.8879970   6.1747850  34.6457800  46.4469820
   5.8461210  33.8309560  46.0671550   7.1230150  34.6027610  46.3235510
   8.6282460  50.4169840  43.4207390   8.1685430  51.1685650  43.0465410
   7.9994920  49.6976310  43.3622190   1.7973680  49.6166570  43.4224500
   2.0851490  49.3620870  42.5457510   2.3096900  49.0643930  44.0130070
   3.0150690  33.3556770  44.0021010   2.2322480  33.8302270  44.2817770
   2.7213620  32.4511600  43.8934190   7.5671760  34.0579870  42.0470100
   8.0079850  34.0024970  41.1991700   7.2979350  34.9737880  42.1180280
   9.4310330  33.6895110  40.0578920   9.3698730  32.7456330  39.9109940
  10.2102360  33.7975200  40.6032380   5.4029890  32.4385970  40.7520110
   6.0059260  33.0106180  41.2268630   4.6622880  33.0025410  40.5294010
   8.5464490  32.8407530  36.0260390   8.7415120  33.7390980  36.2927820
   7.7594360  32.6094610  36.5193340   1.8646040  50.5382670  50.7892700
   2.7913350  50.3026940  50.8328660   1.8496470  51.3654670  50.3078730
  10.0991100  50.0808240  37.7866950  10.2743290  49.3945980  37.1427870
   9.4012670  50.6055290  37.3943620   5.6525110  32.6181000  51.1315050
   5.5390560  32.9375610  52.0266570   6.4694850  33.0193510  50.8352330
   8.4323600  49.7652530  50.6133740   9.2248920  49.2701760  50.4059700
   8.7256750  50.4442670  51.2209350   4.5583260  40.6373470  21.4949790
   4.4777310  39.7228080  21.2241500   4.1447680  41.1340540  20.7889500
   2.6901300  42.4152490  23.3759060   1.9143400  41.9352930  23.6657630
   3.3414230  41.7358140  23.2015220   6.7108730  46.8212680  22.1558190
   6.2490260  46.0499920  22.4845360   7.5234280  46.8478750  22.6610640
   2.9372040  49.1070690  21.7762180   2.3183480  49.5628190  21.2056620
   3.7923820  49.2622150  21.3751880   2.1310290  45.0909680  23.3829220
   2.0618570  44.1499620  23.2218350   2.8930150  45.1811090  23.9551790
   3.1615460  37.8980060  23.6098150   3.5380280  37.0251940  23.4971820
   3.0634970  38.2338760  22.7188590   6.9439580  35.3930500  20.5426490
   7.7649200  34.9027070  20.5851970   6.9773660  35.9828160  21.2958330
  11.2339130  37.4097250  27.1070120  10.5291300  37.7978960  26.5885230
  11.4997050  38.1047540  27.7091050   3.8035390  43.9909930  19.1694090
   3.1852660  44.4559380  18.6056810   4.3158640  44.6837410  19.5863600
   7.1801060  37.3330880  23.3154030   6.4756630  37.6215770  23.8957140
   7.5413220  38.1430990  22.9553590   8.7963840  46.9506010  25.5781510
   8.1127360  47.6205120  25.5698180   9.3358130  47.1486660  24.8126370
  10.2487980  36.7785670  23.7063240   9.3012890  36.8124650  23.8378670
  10.5737970  37.5924620  24.0912600   6.3322580  48.7950140  24.2926690
   6.3449740  48.3912430  23.4248950   5.7797800  49.5697430  24.1888120
   7.6268000  45.5166360  19.3816860   7.5164330  44.5740690  19.5066280
   7.6236250  45.8782000  20.2679620   5.7308020  43.6979980  25.6209300
   6.1476810  43.4840090  24.7862760   6.4547840  43.9552770  26.1917920
   3.1688280  41.1431680  18.7379350   2.2417560  41.0769060  18.9667820
   3.3213100  42.0811810  18.6234590   3.1557360  37.4148680  15.7346510
   2.2161030  37.5762640  15.8198970   3.4740620  38.1334360  15.1882500
   9.6770120  42.0967200  25.7125540   8.8488750  42.1660290  25.2375670
  10.2720600  42.6821510  25.2441370   7.1985570  42.7051980  19.2414600
   6.5797990  42.3671530  18.5940900   7.1810020  42.0611740  19.9493790
   6.6412130  38.8836520  26.6580410   6.2283310  39.7090230  26.9120400
   5.9088080  38.2981560  26.4656770   7.3312230  48.9295850  27.3461390
   6.8542790  49.7368040  27.1534000   6.6474020  48.2774180  27.4987600
   5.3750270  41.9438790  16.2487350   5.8143550  41.1061220  16.1025170
   6.0878690  42.5768190  16.3351490   3.4845650  46.8834860  20.2168590
   3.9241560  47.6259190  19.8023980   3.4232540  47.1261430  21.1407550
   8.9567410  33.1981600  14.5628390   8.6440070  33.2908430  15.4627460
   9.7179880  33.7762630  14.5125820  10.9111440  48.6907790  32.4152780
  11.3871160  49.1690680  33.0941860  11.5318600  48.6225280  31.6898280
  10.3144690  45.8820640  29.5752790  10.4407750  45.6432520  28.6569970
  10.3566070  45.0505180  30.0474870   4.1761430  49.5848640  28.1447600
   4.6906100  49.4956650  28.9470030   3.3330510  49.9308340  28.4375510
   6.1515830  49.8703980  17.5731600   5.9916970  49.5806920  18.4713430
   5.9862540  49.0944110  17.0376830   5.8541960  47.3791540  16.1329600
   5.1607120  47.3768830  15.4731880   6.5964820  46.9550860  15.7023770
   5.4191890  49.0054250  20.2078090   5.8748840  48.2243630  20.5216710
   5.7584410  49.7161070  20.7519270  10.1668700  37.9353100  30.5402530
   9.5512970  38.4432770  30.0117990   9.8465120  37.0351430  30.4828470
   2.2283020  36.7744990  28.0064720   1.7662390  36.9828010  28.8184660
   1.8261130  35.9604340  27.7035390   7.2287530  37.9953940  29.1361380
   6.3781120  37.6959690  29.4570450   7.0689320  38.2395950  28.2245200
   4.3237240  39.4955690  31.2360170   4.6490650  38.6619440  30.8962400
   5.1117570  40.0184210  31.3838500   4.9625190  39.0373410  18.7301300
   4.3634080  39.7609210  18.5464920   5.5104800  38.9750190  17.9477750
   3.5690060  37.6736950  20.7604580   3.9619630  37.9909150  19.9473270
   3.9306910  36.7948830  20.8749100   4.1545200  40.2642700  24.8555360
   3.4226320  40.7729510  25.2045460   3.7569540  39.4472680  24.5544140
   4.6171110  35.7176380  24.2678300   4.6343850  36.1685030  25.1120150
   4.3686690  34.8182020  24.4811740   8.0441860  33.1308560  30.1064680
   8.3687630  32.3998220  30.6322660   8.0798370  32.8122200  29.2045670
   7.9699700  43.2433670  23.7150710   8.6898820  43.7388960  23.3246820
   7.7681520  42.5651560  23.0704580   3.4309640  34.6371630  17.8580100
   2.6174250  34.1384800  17.7825410   3.2371590  35.4769880  17.4416450
   3.3518500  43.3142730  29.6019710   3.2855810  42.3938400  29.3477300
   2.7223640  43.4118170  30.3164350   6.1458030  39.0091280  16.1542260
   7.0337650  39.3208510  15.9793600   6.1163120  38.1363530  15.7622840
   3.2835230  46.1363300  29.3523510   3.2979770  45.2044260  29.1342420
   2.5760330  46.2223060  29.9913280   8.4172300  40.3203120  15.6222120
   8.3336020  40.7517340  14.7718560   9.1366490  40.7801470  16.0548940
   9.4946440  42.7770640  28.6992090   8.7694630  43.3699420  28.5021480
  10.0221900  42.7694180  27.9005460   9.4459550  47.1745380  18.3504250
   8.8035710  46.5201000  18.6247970   9.0590210  47.5800470  17.5744920
   5.0246030  44.5030810  22.1975940   5.3769850  43.9058940  21.5377310
   4.1408360  44.1775040  22.3684190   2.7169130  47.7780870  26.4464010
   3.3611350  47.9840250  27.1237430   3.0798570  47.0169270  25.9934860
   3.9901210  45.7813220  25.1641460   4.6323440  45.0806380  25.2773630
   4.5150560  46.5611660  24.9838350   7.8356930  46.0661840  14.8880600
   7.6094510  45.3492280  15.4805240   7.4453130  45.8174280  14.0502350
   5.7638830  46.5808120  28.3677520   6.0995070  47.1674810  29.0455440
   4.8439170  46.4500830  28.5975310   7.4173180  43.9833780  16.5494760
   7.1294880  44.4446470  17.3372640   8.2125350  43.5231550  16.8178980
   4.8081010  36.8625610  26.9002380   5.1761830  36.0420820  27.2281950
   3.9479210  36.9227500  27.3158030   8.1743040  35.8182550  17.7089940
   7.5456200  35.9228220  16.9948170   7.6794960  36.0379330  18.4983820
   2.6201180  47.5388140  15.1423920   2.7213160  47.3352130  14.2125900
   1.7202920  47.2846420  15.3471700   1.7683000  39.5165200  27.1240350
   2.2668250  39.9911020  27.7892200   1.9105950  38.5928720  27.3310380
   4.1742500  34.8219160  20.5643610   4.0510280  34.8405290  19.6153120
   5.1227060  34.8698100  20.6842010   8.9749860  35.7333160  27.9668740
   8.4723460  36.4738560  28.3062550   9.7906520  36.1217160  27.6505530
   7.2671870  40.9766340  21.4130100   6.3262010  40.9916570  21.5877790
   7.5815940  40.1902300  21.8590400   9.2697450  48.1475190  23.0884360
   9.3944870  48.9706360  23.5608170  10.1363010  47.9365920  22.7408510
   4.5837890  45.5332340  31.8962480   3.9776050  45.5563940  31.1558230
   4.2792000  44.8015380  32.4329730   6.0138260  49.2612630  30.5071890
   6.9660010  49.1770650  30.4572130   5.8666480  49.9254340  31.1805680
   8.9047460  48.6406840  16.0063800   8.6188970  48.2271980  15.1917980
   8.7067010  49.5694550  15.8864320   3.6097420  43.6960150  15.0511400
   3.0607520  44.1429450  15.6954140   4.2316680  43.1909400  15.5749070
   7.6632360  45.0502250  30.9833660   8.4041830  45.3878010  30.4801120
   6.9005040  45.2194310  30.4303430   1.7900180  41.6788680  14.1953800
   2.3105840  40.9637700  13.8294950   2.4368580  42.3174550  14.4954310
   6.3378020  43.1017080  29.5188870   6.7519040  43.2562160  30.3679290
   5.4029020  43.2272300  29.6814650   6.8100190  40.4413240  31.5228020
   7.3920960  39.6865560  31.4348500   6.9861960  40.9720680  30.7459500
   3.4357150  40.7853740  28.8722640   3.5553360  40.1894880  29.6117480
   4.2951150  40.8223430  28.4523940   5.7745050  41.3390930  27.4485150
   5.2480270  41.8633550  26.8450290   6.1176390  41.9718320  28.0794880
   5.0219350  36.9440900  30.3631480   4.3334870  36.2822440  30.2981470
   5.7425370  36.4979170  30.8079940   5.6519750  33.5392530  16.4221740
   5.9322040  32.6960430  16.7781160   4.8785480  33.7715640  16.9360490
   2.3548210  49.7600290  16.4855540   3.2499000  50.0985260  16.5074300
   2.3865840  49.0379700  15.8579820   9.3342560  48.2903960  29.1921740
   8.7344550  48.3496520  28.4485660   9.4636460  47.3508940  29.3218590
  10.5744010  46.0321780  14.5291450   9.7436970  46.0998430  14.9998680
  10.7515840  46.9225900  14.2258310  10.0300470  42.7769260  17.0325650
  10.7919380  43.3465910  17.1385340  10.0454840  42.2096460  17.8033960
  11.0360440  43.6319360  21.8767580  11.4069270  42.8486680  21.4703550
  11.6762370  44.3208460  21.6984880   8.0194200  45.0155940  27.2897900
   7.2054040  45.4453100  27.5523690   8.4268400  45.6274350  26.6766950
  10.0819640  43.0703630  14.1898170  10.3568480  43.9782510  14.0617390
   9.8930380  43.0066160  15.1260160   6.4795250  36.0948480  15.4851800
   6.8980130  35.9079460  14.6448460   6.1731310  35.2427530  15.7954730
   9.9784980  41.0072620  19.1827600   9.6028580  40.2400550  18.7508890
   9.2488100  41.3895320  19.6702530   9.3684600  40.1544140  28.8167120
   9.1370690  39.9256890  27.9165070   9.6289150  41.0743690  28.7712010
   7.8072670  35.3800570  31.5946820   8.6842850  35.3883970  31.9780820
   7.8193510  34.6431410  30.9839170   9.2535940  39.2330110  22.4834840
   9.7773420  38.7392760  21.8525010   9.8395360  39.3680470  23.2282410
   9.4325660  39.3169980  26.0054390   8.4828370  39.2833520  26.1199380
   9.6138670  40.2270090  25.7704160   8.7435910  38.4903460  18.4227250
   9.2395030  38.2574330  19.2076130   8.5451980  37.6515300  18.0064890
  10.1723070  37.1264410  20.9564930  10.0622350  36.9720450  21.8947200
  10.9330660  36.5985350  20.7140340   8.5188790  33.0658540  27.4147930
   9.1561010  33.6792680  27.7807120   8.6663680  33.1019200  26.4697160
  11.0613340  34.9572330  14.1971070  11.9862650  34.8253510  13.9889360
  11.0389130  35.0365150  15.1507520  11.1351830  35.7282990  16.8227780
  10.3403330  35.6628110  17.3520690  11.3395110  36.6633630  16.8113130
   8.0770250  49.7674540  20.8166170   8.6729320  49.4459110  20.1400590
   8.3348400  49.2946360  21.6079440   1.8893270  34.2184730  30.3223030
   1.8282160  34.8106560  31.0718440   2.8293650  34.1110690  30.1773290
   4.5267830  33.8754790  29.9615320   5.1408240  34.1934080  29.2996400
   5.0717390  33.3903380  30.5811180  10.9443010  49.7746420  27.3677160
  10.4501290  50.1715290  26.6504290  10.3356300  49.1495630  27.7614440
   5.2675870  32.4386930  26.2884610   4.3935710  32.7722040  26.0857540
   5.1586620  31.9660110  27.1136480   6.1747850  34.6457800  27.6726330
   5.8461210  33.8309560  27.2928060   7.1230150  34.6027610  27.5492020
   8.6282460  50.4169840  24.6463900   8.1685430  51.1685650  24.2721920
   7.9994920  49.6976310  24.5878700   1.7973680  49.6166570  24.6481010
   2.0851490  49.3620870  23.7714020   2.3096900  49.0643930  25.2386580
   3.0150690  33.3556770  25.2277520   2.2322480  33.8302270  25.5074280
   2.7213620  32.4511600  25.1190700   7.5671760  34.0579870  23.2726610
   8.0079850  34.0024970  22.4248210   7.2979350  34.9737880  23.3436790
   9.4310330  33.6895110  21.2835430   9.3698730  32.7456330  21.1366450
  10.2102360  33.7975200  21.8288890   5.4029890  32.4385970  21.9776620
   6.0059260  33.0106180  22.4525140   4.6622880  33.0025410  21.7550520
   8.5464490  32.8407530  17.2516900   8.7415120  33.7390980  17.5184330
   7.7594360  32.6094610  17.7449850   1.8646040  50.5382670  32.0149210
   2.7913350  50.3026940  32.0585170   1.8496470  51.3654670  31.5335240
  10.0991100  50.0808240  19.0123460  10.2743290  49.3945980  18.3684380
   9.4012670  50.6055290  18.6200130   5.6525110  32.6181000  32.3571560
   5.5390560  32.9375610  33.2523080   6.4694850  33.0193510  32.0608840
   8.4323600  49.7652530  31.8390250   9.2248920  49.2701760  31.6316210
   8.7256750  50.4442670  32.4465860   4.5583260  40.6373470   2.7206300
   4.4777310  39.7228080   2.4498010   4.1447680  41.1340540   2.0146010
   2.6901300  42.4152490   4.6015570   1.9143400  41.9352930   4.8914140
   3.3414230  41.7358140   4.4271730   6.7108730  46.8212680   3.3814700
   6.2490260  46.0499920   3.7101870   7.5234280  46.8478750   3.8867150
   2.9372040  49.1070690   3.0018690   2.3183480  49.5628190   2.4313130
   3.7923820  49.2622150   2.6008390   2.1310290  45.0909680   4.6085730
   2.0618570  44.1499620   4.4474860   2.8930150  45.1811090   5.1808300
   3.1615460  37.8980060   4.8354660   3.5380280  37.0251940   4.7228330
   3.0634970  38.2338760   3.9445100   6.9439580  35.3930500   1.7683000
   7.7649200  34.9027070   1.8108480   6.9773660  35.9828160   2.5214840
  11.2339130  37.4097250   8.3326630  10.5291300  37.7978960   7.8141740
  11.4997050  38.1047540   8.9347560   7.1801060  37.3330880   4.5410540
   6.4756630  37.6215770   5.1213650   7.5413220  38.1430990   4.1810100
   8.7963840  46.9506010   6.8038020   8.1127360  47.6205120   6.7954690
   9.3358130  47.1486660   6.0382880  10.2487980  36.7785670   4.9319750
   9.3012890  36.8124650   5.0635180  10.5737970  37.5924620   5.3169110
   6.3322580  48.7950140   5.5183200   6.3449740  48.3912430   4.6505460
   5.7797800  49.5697430   5.4144630   5.7308020  43.6979980   6.8465810
   6.1476810  43.4840090   6.0119270   6.4547840  43.9552770   7.4174430
   9.6770120  42.0967200   6.9382050   8.8488750  42.1660290   6.4632180
  10.2720600  42.6821510   6.4697880   6.6412130  38.8836520   7.8836920
   6.2283310  39.7090230   8.1376910   5.9088080  38.2981560   7.6913280
   7.3312230  48.9295850   8.5717900   6.8542790  49.7368040   8.3790510
   6.6474020  48.2774180   8.7244110  10.9111440  48.6907790  13.6409290
  11.3871160  49.1690680  14.3198370  11.5318600  48.6225280  12.9154790
  10.3144690  45.8820640  10.8009300  10.4407750  45.6432520   9.8826480
  10.3566070  45.0505180  11.2731380   4.1761430  49.5848640   9.3704110
   4.6906100  49.4956650  10.1726540   3.3330510  49.9308340   9.6632020
  10.1668700  37.9353100  11.7659040   9.5512970  38.4432770  11.2374500
   9.8465120  37.0351430  11.7084980   2.2283020  36.7744990   9.2321230
   1.7662390  36.9828010  10.0441170   1.8261130  35.9604340   8.9291900
   7.2287530  37.9953940  10.3617890   6.3781120  37.6959690  10.6826960
   7.0689320  38.2395950   9.4501710   4.3237240  39.4955690  12.4616680
   4.6490650  38.6619440  12.1218910   5.1117570  40.0184210  12.6095010
   4.1545200  40.2642700   6.0811870   3.4226320  40.7729510   6.4301970
   3.7569540  39.4472680   5.7800650   4.6171110  35.7176380   5.4934810
   4.6343850  36.1685030   6.3376660   4.3686690  34.8182020   5.7068250
   8.0441860  33.1308560  11.3321190   8.3687630  32.3998220  11.8579170
   8.0798370  32.8122200  10.4302180   7.9699700  43.2433670   4.9407220
   8.6898820  43.7388960   4.5503330   7.7681520  42.5651560   4.2961090
   3.3518500  43.3142730  10.8276220   3.2855810  42.3938400  10.5733810
   2.7223640  43.4118170  11.5420860   3.2835230  46.1363300  10.5780020
   3.2979770  45.2044260  10.3598930   2.5760330  46.2223060  11.2169790
   9.4946440  42.7770640   9.9248600   8.7694630  43.3699420   9.7277990
  10.0221900  42.7694180   9.1261970   5.0246030  44.5030810   3.4232450
   5.3769850  43.9058940   2.7633820   4.1408360  44.1775040   3.5940700
   2.7169130  47.7780870   7.6720520   3.3611350  47.9840250   8.3493940
   3.0798570  47.0169270   7.2191370   3.9901210  45.7813220   6.3897970
   4.6323440  45.0806380   6.5030140   4.5150560  46.5611660   6.2094860
   5.7638830  46.5808120   9.5934030   6.0995070  47.1674810  10.2711950
   4.8439170  46.4500830   9.8231820   4.8081010  36.8625610   8.1258890
   5.1761830  36.0420820   8.4538460   3.9479210  36.9227500   8.5414540
   1.7683000  39.5165200   8.3496860   2.2668250  39.9911020   9.0148710
   1.9105950  38.5928720   8.5566890   8.9749860  35.7333160   9.1925250
   8.4723460  36.4738560   9.5319060   9.7906520  36.1217160   8.8762040
   7.2671870  40.9766340   2.6386610   6.3262010  40.9916570   2.8134300
   7.5815940  40.1902300   3.0846910   9.2697450  48.1475190   4.3140870
   9.3944870  48.9706360   4.7864680  10.1363010  47.9365920   3.9665020
   4.5837890  45.5332340  13.1218990   3.9776050  45.5563940  12.3814740
   4.2792000  44.8015380  13.6586240   6.0138260  49.2612630  11.7328400
   6.9660010  49.1770650  11.6828640   5.8666480  49.9254340  12.4062190
   7.6632360  45.0502250  12.2090170   8.4041830  45.3878010  11.7057630
   6.9005040  45.2194310  11.6559940   6.3378020  43.1017080  10.7445380
   6.7519040  43.2562160  11.5935800   5.4029020  43.2272300  10.9071160
   6.8100190  40.4413240  12.7484530   7.3920960  39.6865560  12.6605010
   6.9861960  40.9720680  11.9716010   3.4357150  40.7853740  10.0979150
   3.5553360  40.1894880  10.8373990   4.2951150  40.8223430   9.6780450
   5.7745050  41.3390930   8.6741660   5.2480270  41.8633550   8.0706800
   6.1176390  41.9718320   9.3051390   5.0219350  36.9440900  11.5887990
   4.3334870  36.2822440  11.5237980   5.7425370  36.4979170  12.0336450
   9.3342560  48.2903960  10.4178250   8.7344550  48.3496520   9.6742170
   9.4636460  47.3508940  10.5475100  11.0360440  43.6319360   3.1024090
  11.4069270  42.8486680   2.6960060  11.6762370  44.3208460   2.9241390
   8.0194200  45.0155940   8.5154410   7.2054040  45.4453100   8.7780200
   8.4268400  45.6274350   7.9023460   9.3684600  40.1544140  10.0423630
   9.1370690  39.9256890   9.1421580   9.6289150  41.0743690   9.9968520
   7.8072670  35.3800570  12.8203330   8.6842850  35.3883970  13.2037330
   7.8193510  34.6431410  12.2095680   9.2535940  39.2330110   3.7091350
   9.7773420  38.7392760   3.0781520   9.8395360  39.3680470   4.4538920
   9.4325660  39.3169980   7.2310900   8.4828370  39.2833520   7.3455890
   9.6138670  40.2270090   6.9960670  10.1723070  37.1264410   2.1821440
  10.0622350  36.9720450   3.1203710  10.9330660  36.5985350   1.9396850
   8.5188790  33.0658540   8.6404440   9.1561010  33.6792680   9.0063630
   8.6663680  33.1019200   7.6953670   1.8893270  34.2184730  11.5479540
   1.8282160  34.8106560  12.2974950   2.8293650  34.1110690  11.4029800
   4.5267830  33.8754790  11.1871830   5.1408240  34.1934080  10.5252910
   5.0717390  33.3903380  11.8067690  10.9443010  49.7746420   8.5933670
  10.4501290  50.1715290   7.8760800  10.3356300  49.1495630   8.9870950
   5.2675870  32.4386930   7.5141120   4.3935710  32.7722040   7.3114050
   5.1586620  31.9660110   8.3392990   6.1747850  34.6457800   8.8982840
   5.8461210  33.8309560   8.5184570   7.1230150  34.6027610   8.7748530
   8.6282460  50.4169840   5.8720410   8.1685430  51.1685650   5.4978430
   7.9994920  49.6976310   5.8135210   1.7973680  49.6166570   5.8737520
   2.0851490  49.3620870   4.9970530   2.3096900  49.0643930   6.4643090
   3.0150690  33.3556770   6.4534030   2.2322480  33.8302270   6.7330790
   2.7213620  32.4511600   6.3447210   7.5671760  34.0579870   4.4983120
   8.0079850  34.0024970   3.6504720   7.2979350  34.9737880   4.5693300
   9.4310330  33.6895110   2.5091940   9.3698730  32.7456330   2.3622960
  10.2102360  33.7975200   3.0545400   5.4029890  32.4385970   3.2033130
   6.0059260  33.0106180   3.6781650   4.6622880  33.0025410   2.9807030
   1.8646040  50.5382670  13.2405720   2.7913350  50.3026940  13.2841680
   1.8496470  51.3654670  12.7591750   5.6525110  32.6181000  13.5828070
   5.5390560  32.9375610  14.4779590   6.4694850  33.0193510  13.2865350
   8.4323600  49.7652530  13.0646760   9.2248920  49.2701760  12.8572720
   8.7256750  50.4442670  13.6722370   4.5583260  21.8629980  77.8180260
   4.4777310  20.9484590  77.5471970   4.1447680  22.3597050  77.1119970
   2.6901300  23.6409000  79.6989530   1.9143400  23.1609440  79.9888100
   3.3414230  22.9614650  79.5245690   6.7108730  28.0469190  78.4788660
   6.2490260  27.2756430  78.8075830   7.5234280  28.0735260  78.9841110
   2.9372040  30.3327200  78.0992650   2.3183480  30.7884700  77.5287090
   3.7923820  30.4878660  77.6982350   2.1310290  26.3166190  79.7059690
   2.0618570  25.3756130  79.5448820   2.8930150  26.4067600  80.2782260
   3.1615460  19.1236570  79.9328620   3.5380280  18.2508450  79.8202290
   3.0634970  19.4595270  79.0419060   6.9439580  16.6187010  76.8656960
   7.7649200  16.1283580  76.9082440   6.9773660  17.2084670  77.6188800
   3.8035390  25.2166440  75.4924560   3.1852660  25.6815890  74.9287280
   4.3158640  25.9093920  75.9094070   7.1801060  18.5587390  79.6384500
   6.4756630  18.8472280  80.2187610   7.5413220  19.3687500  79.2784060
   8.7963840  28.1762520  81.9011980   8.1127360  28.8461630  81.8928650
   9.3358130  28.3743170  81.1356840  10.2487980  18.0042180  80.0293710
   9.3012890  18.0381160  80.1609140  10.5737970  18.8181130  80.4143070
   6.3322580  30.0206650  80.6157160   6.3449740  29.6168940  79.7479420
   5.7797800  30.7953940  80.5118590   7.6268000  26.7422870  75.7047330
   7.5164330  25.7997200  75.8296750   7.6236250  27.1038510  76.5910090
   3.1688280  22.3688190  75.0609820   2.2417560  22.3025570  75.2898290
   3.3213100  23.3068320  74.9465060   3.1557360  18.6405190  72.0576980
   2.2161030  18.8019150  72.1429440   3.4740620  19.3590870  71.5112970
   9.6770120  23.3223710  82.0356010   8.8488750  23.3916800  81.5606140
  10.2720600  23.9078020  81.5671840   7.1985570  23.9308490  75.5645070
   6.5797990  23.5928040  74.9171370   7.1810020  23.2868250  76.2724260
   5.3750270  23.1695300  72.5717820   5.8143550  22.3317730  72.4255640
   6.0878690  23.8024700  72.6581960   3.4845650  28.1091370  76.5399060
   3.9241560  28.8515700  76.1254450   3.4232540  28.3517940  77.4638020
   8.9567410  14.4238110  70.8858860   8.6440070  14.5164940  71.7857930
   9.7179880  15.0019140  70.8356290   6.1515830  31.0960490  73.8962070
   5.9916970  30.8063430  74.7943900   5.9862540  30.3200620  73.3607300
   5.8541960  28.6048050  72.4560070   5.1607120  28.6025340  71.7962350
   6.5964820  28.1807370  72.0254240   5.4191890  30.2310760  76.5308560
   5.8748840  29.4500140  76.8447180   5.7584410  30.9417580  77.0749740
   4.9625190  20.2629920  75.0531770   4.3634080  20.9865720  74.8695390
   5.5104800  20.2006700  74.2708220   3.5690060  18.8993460  77.0835050
   3.9619630  19.2165660  76.2703740   3.9306910  18.0205340  77.1979570
   4.1545200  21.4899210  81.1785830   3.4226320  21.9986020  81.5275930
   3.7569540  20.6729190  80.8774610   4.6171110  16.9432890  80.5908770
   4.6343850  17.3941540  81.4350620   4.3686690  16.0438530  80.8042210
   7.9699700  24.4690180  80.0381180   8.6898820  24.9645470  79.6477290
   7.7681520  23.7908070  79.3935050   3.4309640  15.8628140  74.1810570
   2.6174250  15.3641310  74.1055880   3.2371590  16.7026390  73.7646920
   6.1458030  20.2347790  72.4772730   7.0337650  20.5465020  72.3024070
   6.1163120  19.3620040  72.0853310   8.4172300  21.5459630  71.9452590
   8.3336020  21.9773850  71.0949030   9.1366490  22.0057980  72.3779410
   9.4459550  28.4001890  74.6734720   8.8035710  27.7457510  74.9478440
   9.0590210  28.8056980  73.8975390   5.0246030  25.7287320  78.5206410
   5.3769850  25.1315450  77.8607780   4.1408360  25.4031550  78.6914660
   3.9901210  27.0069730  81.4871930   4.6323440  26.3062890  81.6004100
   4.5150560  27.7868170  81.3068820   7.8356930  27.2918350  71.2111070
   7.6094510  26.5748790  71.8035710   7.4453130  27.0430790  70.3732820
   7.4173180  25.2090290  72.8725230   7.1294880  25.6702980  73.6603110
   8.2125350  24.7488060  73.1409450   8.1743040  17.0439060  74.0320410
   7.5456200  17.1484730  73.3178640   7.6794960  17.2635840  74.8214290
   2.6201180  28.7644650  71.4654390   2.7213160  28.5608640  70.5356370
   1.7202920  28.5102930  71.6702170   4.1742500  16.0475670  76.8874080
   4.0510280  16.0661800  75.9383590   5.1227060  16.0954610  77.0072480
   7.2671870  22.2022850  77.7360570   6.3262010  22.2173080  77.9108260
   7.5815940  21.4158810  78.1820870   9.2697450  29.3731700  79.4114830
   9.3944870  30.1962870  79.8838640  10.1363010  29.1622430  79.0638980
   8.9047460  29.8663350  72.3294270   8.6188970  29.4528490  71.5148450
   8.7067010  30.7951060  72.2094790   3.6097420  24.9216660  71.3741870
   3.0607520  25.3685960  72.0184610   4.2316680  24.4165910  71.8979540
   1.7900180  22.9045190  70.5184270   2.3105840  22.1894210  70.1525420
   2.4368580  23.5431060  70.8184780   5.6519750  14.7649040  72.7452210
   5.9322040  13.9216940  73.1011630   4.8785480  14.9972150  73.2590960
   2.3548210  30.9856800  72.8086010   3.2499000  31.3241770  72.8304770
   2.3865840  30.2636210  72.1810290  10.5744010  27.2578290  70.8521920
   9.7436970  27.3254940  71.3229150  10.7515840  28.1482410  70.5488780
  10.0300470  24.0025770  73.3556120  10.7919380  24.5722420  73.4615810
  10.0454840  23.4352970  74.1264430  11.0360440  24.8575870  78.1998050
  11.4069270  24.0743190  77.7934020  11.6762370  25.5464970  78.0215350
  10.0819640  24.2960140  70.5128640  10.3568480  25.2039020  70.3847860
   9.8930380  24.2322670  71.4490630   6.4795250  17.3204990  71.8082270
   6.8980130  17.1335970  70.9678930   6.1731310  16.4684040  72.1185200
   9.9784980  22.2329130  75.5058070   9.6028580  21.4657060  75.0739360
   9.2488100  22.6151830  75.9933000   9.2535940  20.4586620  78.8065310
   9.7773420  19.9649270  78.1755480   9.8395360  20.5936980  79.5512880
   8.7435910  19.7159970  74.7457720   9.2395030  19.4830840  75.5306600
   8.5451980  18.8771810  74.3295360  10.1723070  18.3520920  77.2795400
  10.0622350  18.1976960  78.2177670  10.9330660  17.8241860  77.0370810
  11.0613340  16.1828840  70.5201540  11.9862650  16.0510020  70.3119830
  11.0389130  16.2621660  71.4737990  11.1351830  16.9539500  73.1458250
  10.3403330  16.8884620  73.6751160  11.3395110  17.8890140  73.1343600
   8.0770250  30.9931050  77.1396640   8.6729320  30.6715620  76.4631060
   8.3348400  30.5202870  77.9309910   8.6282460  31.6426350  80.9694370
   8.1685430  32.3942160  80.5952390   7.9994920  30.9232820  80.9109170
   1.7973680  30.8423080  80.9711480   2.0851490  30.5877380  80.0944490
   2.3096900  30.2900440  81.5617050   3.0150690  14.5813280  81.5507990
   2.2322480  15.0558780  81.8304750   2.7213620  13.6768110  81.4421170
   7.5671760  15.2836380  79.5957080   8.0079850  15.2281480  78.7478680
   7.2979350  16.1994390  79.6667260   9.4310330  14.9151620  77.6065900
   9.3698730  13.9712840  77.4596920  10.2102360  15.0231710  78.1519360
   5.4029890  13.6642480  78.3007090   6.0059260  14.2362690  78.7755610
   4.6622880  14.2281920  78.0780990   8.5464490  14.0664040  73.5747370
   8.7415120  14.9647490  73.8414800   7.7594360  13.8351120  74.0680320
  10.0991100  31.3064750  75.3353930  10.2743290  30.6202490  74.6914850
   9.4012670  31.8311800  74.9430600   4.5583260  21.8629980  59.0436770
   4.4777310  20.9484590  58.7728480   4.1447680  22.3597050  58.3376480
   2.6901300  23.6409000  60.9246040   1.9143400  23.1609440  61.2144610
   3.3414230  22.9614650  60.7502200   6.7108730  28.0469190  59.7045170
   6.2490260  27.2756430  60.0332340   7.5234280  28.0735260  60.2097620
   2.9372040  30.3327200  59.3249160   2.3183480  30.7884700  58.7543600
   3.7923820  30.4878660  58.9238860   2.1310290  26.3166190  60.9316200
   2.0618570  25.3756130  60.7705330   2.8930150  26.4067600  61.5038770
   3.1615460  19.1236570  61.1585130   3.5380280  18.2508450  61.0458800
   3.0634970  19.4595270  60.2675570   6.9439580  16.6187010  58.0913470
   7.7649200  16.1283580  58.1338950   6.9773660  17.2084670  58.8445310
  11.2339130  18.6353760  64.6557100  10.5291300  19.0235470  64.1372210
  11.4997050  19.3304050  65.2578030   3.8035390  25.2166440  56.7181070
   3.1852660  25.6815890  56.1543790   4.3158640  25.9093920  57.1350580
   7.1801060  18.5587390  60.8641010   6.4756630  18.8472280  61.4444120
   7.5413220  19.3687500  60.5040570   8.7963840  28.1762520  63.1268490
   8.1127360  28.8461630  63.1185160   9.3358130  28.3743170  62.3613350
  10.2487980  18.0042180  61.2550220   9.3012890  18.0381160  61.3865650
  10.5737970  18.8181130  61.6399580   6.3322580  30.0206650  61.8413670
   6.3449740  29.6168940  60.9735930   5.7797800  30.7953940  61.7375100
   7.6268000  26.7422870  56.9303840   7.5164330  25.7997200  57.0553260
   7.6236250  27.1038510  57.8166600   5.7308020  24.9236490  63.1696280
   6.1476810  24.7096600  62.3349740   6.4547840  25.1809280  63.7404900
   3.1688280  22.3688190  56.2866330   2.2417560  22.3025570  56.5154800
   3.3213100  23.3068320  56.1721570   3.1557360  18.6405190  53.2833490
   2.2161030  18.8019150  53.3685950   3.4740620  19.3590870  52.7369480
   9.6770120  23.3223710  63.2612520   8.8488750  23.3916800  62.7862650
  10.2720600  23.9078020  62.7928350   7.1985570  23.9308490  56.7901580
   6.5797990  23.5928040  56.1427880   7.1810020  23.2868250  57.4980770
   6.6412130  20.1093030  64.2067390   6.2283310  20.9346740  64.4607380
   5.9088080  19.5238070  64.0143750   7.3312230  30.1552360  64.8948370
   6.8542790  30.9624550  64.7020980   6.6474020  29.5030690  65.0474580
   5.3750270  23.1695300  53.7974330   5.8143550  22.3317730  53.6512150
   6.0878690  23.8024700  53.8838470   3.4845650  28.1091370  57.7655570
   3.9241560  28.8515700  57.3510960   3.4232540  28.3517940  58.6894530
   8.9567410  14.4238110  52.1115370   8.6440070  14.5164940  53.0114440
   9.7179880  15.0019140  52.0612800  10.9111440  29.9164300  69.9639760
  11.3871160  30.3947190  70.6428840  11.5318600  29.8481790  69.2385260
  10.3144690  27.1077150  67.1239770  10.4407750  26.8689030  66.2056950
  10.3566070  26.2761690  67.5961850   4.1761430  30.8105150  65.6934580
   4.6906100  30.7213160  66.4957010   3.3330510  31.1564850  65.9862490
   6.1515830  31.0960490  55.1218580   5.9916970  30.8063430  56.0200410
   5.9862540  30.3200620  54.5863810   5.8541960  28.6048050  53.6816580
   5.1607120  28.6025340  53.0218860   6.5964820  28.1807370  53.2510750
   5.4191890  30.2310760  57.7565070   5.8748840  29.4500140  58.0703690
   5.7584410  30.9417580  58.3006250  10.1668700  19.1609610  68.0889510
   9.5512970  19.6689280  67.5604970   9.8465120  18.2607940  68.0315450
   2.2283020  18.0001500  65.5551700   1.7662390  18.2084520  66.3671640
   1.8261130  17.1860850  65.2522370   7.2287530  19.2210450  66.6848360
   6.3781120  18.9216200  67.0057430   7.0689320  19.4652460  65.7732180
   4.3237240  20.7212200  68.7847150   4.6490650  19.8875950  68.4449380
   5.1117570  21.2440720  68.9325480   4.9625190  20.2629920  56.2788280
   4.3634080  20.9865720  56.0951900   5.5104800  20.2006700  55.4964730
   3.5690060  18.8993460  58.3091560   3.9619630  19.2165660  57.4960250
   3.9306910  18.0205340  58.4236080   4.1545200  21.4899210  62.4042340
   3.4226320  21.9986020  62.7532440   3.7569540  20.6729190  62.1031120
   4.6171110  16.9432890  61.8165280   4.6343850  17.3941540  62.6607130
   4.3686690  16.0438530  62.0298720   8.0441860  14.3565070  67.6551660
   8.3687630  13.6254730  68.1809640   8.0798370  14.0378710  66.7532650
   7.9699700  24.4690180  61.2637690   8.6898820  24.9645470  60.8733800
   7.7681520  23.7908070  60.6191560   3.4309640  15.8628140  55.4067080
   2.6174250  15.3641310  55.3312390   3.2371590  16.7026390  54.9903430
   3.3518500  24.5399240  67.1506690   3.2855810  23.6194910  66.8964280
   2.7223640  24.6374680  67.8651330   6.1458030  20.2347790  53.7029240
   7.0337650  20.5465020  53.5280580   6.1163120  19.3620040  53.3109820
   3.2835230  27.3619810  66.9010490   3.2979770  26.4300770  66.6829400
   2.5760330  27.4479570  67.5400260   8.4172300  21.5459630  53.1709100
   8.3336020  21.9773850  52.3205540   9.1366490  22.0057980  53.6035920
   9.4946440  24.0027150  66.2479070   8.7694630  24.5955930  66.0508460
  10.0221900  23.9950690  65.4492440   9.4459550  28.4001890  55.8991230
   8.8035710  27.7457510  56.1734950   9.0590210  28.8056980  55.1231900
   5.0246030  25.7287320  59.7462920   5.3769850  25.1315450  59.0864290
   4.1408360  25.4031550  59.9171170   2.7169130  29.0037380  63.9950990
   3.3611350  29.2096760  64.6724410   3.0798570  28.2425780  63.5421840
   3.9901210  27.0069730  62.7128440   4.6323440  26.3062890  62.8260610
   4.5150560  27.7868170  62.5325330   7.8356930  27.2918350  52.4367580
   7.6094510  26.5748790  53.0292220   7.4453130  27.0430790  51.5989330
   5.7638830  27.8064630  65.9164500   6.0995070  28.3931320  66.5942420
   4.8439170  27.6757340  66.1462290   7.4173180  25.2090290  54.0981740
   7.1294880  25.6702980  54.8859620   8.2125350  24.7488060  54.3665960
   4.8081010  18.0882120  64.4489360   5.1761830  17.2677330  64.7768930
   3.9479210  18.1484010  64.8645010   8.1743040  17.0439060  55.2576920
   7.5456200  17.1484730  54.5435150   7.6794960  17.2635840  56.0470800
   2.6201180  28.7644650  52.6910900   2.7213160  28.5608640  51.7612880
   1.7202920  28.5102930  52.8958680   1.7683000  20.7421710  64.6727330
   2.2668250  21.2167530  65.3379180   1.9105950  19.8185230  64.8797360
   4.1742500  16.0475670  58.1130590   4.0510280  16.0661800  57.1640100
   5.1227060  16.0954610  58.2328990   8.9749860  16.9589670  65.5155720
   8.4723460  17.6995070  65.8549530   9.7906520  17.3473670  65.1992510
   7.2671870  22.2022850  58.9617080   6.3262010  22.2173080  59.1364770
   7.5815940  21.4158810  59.4077380   9.2697450  29.3731700  60.6371340
   9.3944870  30.1962870  61.1095150  10.1363010  29.1622430  60.2895490
   4.5837890  26.7588850  69.4449460   3.9776050  26.7820450  68.7045210
   4.2792000  26.0271890  69.9816710   6.0138260  30.4869140  68.0558870
   6.9660010  30.4027160  68.0059110   5.8666480  31.1510850  68.7292660
   8.9047460  29.8663350  53.5550780   8.6188970  29.4528490  52.7404960
   8.7067010  30.7951060  53.4351300   3.6097420  24.9216660  52.5998380
   3.0607520  25.3685960  53.2441120   4.2316680  24.4165910  53.1236050
   7.6632360  26.2758760  68.5320640   8.4041830  26.6134520  68.0288100
   6.9005040  26.4450820  67.9790410   1.7900180  22.9045190  51.7440780
   2.3105840  22.1894210  51.3781930   2.4368580  23.5431060  52.0441290
   6.3378020  24.3273590  67.0675850   6.7519040  24.4818670  67.9166270
   5.4029020  24.4528810  67.2301630   6.8100190  21.6669750  69.0715000
   7.3920960  20.9122070  68.9835480   6.9861960  22.1977190  68.2946480
   3.4357150  22.0110250  66.4209620   3.5553360  21.4151390  67.1604460
   4.2951150  22.0479940  66.0010920   5.7745050  22.5647440  64.9972130
   5.2480270  23.0890060  64.3937270   6.1176390  23.1974830  65.6281860
   5.0219350  18.1697410  67.9118460   4.3334870  17.5078950  67.8468450
   5.7425370  17.7235680  68.3566920   5.6519750  14.7649040  53.9708720
   5.9322040  13.9216940  54.3268140   4.8785480  14.9972150  54.4847470
   2.3548210  30.9856800  54.0342520   3.2499000  31.3241770  54.0561280
   2.3865840  30.2636210  53.4066800   9.3342560  29.5160470  66.7408720
   8.7344550  29.5753030  65.9972640   9.4636460  28.5765450  66.8705570
  10.5744010  27.2578290  52.0778430   9.7436970  27.3254940  52.5485660
  10.7515840  28.1482410  51.7745290  10.0300470  24.0025770  54.5812630
  10.7919380  24.5722420  54.6872320  10.0454840  23.4352970  55.3520940
  11.0360440  24.8575870  59.4254560  11.4069270  24.0743190  59.0190530
  11.6762370  25.5464970  59.2471860   8.0194200  26.2412450  64.8384880
   7.2054040  26.6709610  65.1010670   8.4268400  26.8530860  64.2253930
  10.0819640  24.2960140  51.7385150  10.3568480  25.2039020  51.6104370
   9.8930380  24.2322670  52.6747140   6.4795250  17.3204990  53.0338780
   6.8980130  17.1335970  52.1935440   6.1731310  16.4684040  53.3441710
   9.9784980  22.2329130  56.7314580   9.6028580  21.4657060  56.2995870
   9.2488100  22.6151830  57.2189510   9.3684600  21.3800650  66.3654100
   9.1370690  21.1513400  65.4652050   9.6289150  22.3000200  66.3198990
   7.8072670  16.6057080  69.1433800   8.6842850  16.6140480  69.5267800
   7.8193510  15.8687920  68.5326150   9.2535940  20.4586620  60.0321820
   9.7773420  19.9649270  59.4011990   9.8395360  20.5936980  60.7769390
   9.4325660  20.5426490  63.5541370   8.4828370  20.5090030  63.6686360
   9.6138670  21.4526600  63.3191140   8.7435910  19.7159970  55.9714230
   9.2395030  19.4830840  56.7563110   8.5451980  18.8771810  55.5551870
  10.1723070  18.3520920  58.5051910  10.0622350  18.1976960  59.4434180
  10.9330660  17.8241860  58.2627320   8.5188790  14.2915050  64.9634910
   9.1561010  14.9049190  65.3294100   8.6663680  14.3275710  64.0184140
  11.0613340  16.1828840  51.7458050  11.9862650  16.0510020  51.5376340
  11.0389130  16.2621660  52.6994500  11.1351830  16.9539500  54.3714760
  10.3403330  16.8884620  54.9007670  11.3395110  17.8890140  54.3600110
   8.0770250  30.9931050  58.3653150   8.6729320  30.6715620  57.6887570
   8.3348400  30.5202870  59.1566420   1.8893270  15.4441240  67.8710010
   1.8282160  16.0363070  68.6205420   2.8293650  15.3367200  67.7260270
   4.5267830  15.1011300  67.5102300   5.1408240  15.4190590  66.8483380
   5.0717390  14.6159890  68.1298160  10.9443010  31.0002930  64.9164140
  10.4501290  31.3971800  64.1991270  10.3356300  30.3752140  65.3101420
   5.2675870  13.6643440  63.8371590   4.3935710  13.9978550  63.6344520
   5.1586620  13.1916620  64.6623460   6.1747850  15.8714310  65.2213310
   5.8461210  15.0566070  64.8415040   7.1230150  15.8284120  65.0979000
   8.6282460  31.6426350  62.1950880   8.1685430  32.3942160  61.8208900
   7.9994920  30.9232820  62.1365680   1.7973680  30.8423080  62.1967990
   2.0851490  30.5877380  61.3201000   2.3096900  30.2900440  62.7873560
   3.0150690  14.5813280  62.7764500   2.2322480  15.0558780  63.0561260
   2.7213620  13.6768110  62.6677680   7.5671760  15.2836380  60.8213590
   8.0079850  15.2281480  59.9735190   7.2979350  16.1994390  60.8923770
   9.4310330  14.9151620  58.8322410   9.3698730  13.9712840  58.6853430
  10.2102360  15.0231710  59.3775870   5.4029890  13.6642480  59.5263600
   6.0059260  14.2362690  60.0012120   4.6622880  14.2281920  59.3037500
   8.5464490  14.0664040  54.8003880   8.7415120  14.9647490  55.0671310
   7.7594360  13.8351120  55.2936830   1.8646040  31.7639180  69.5636190
   2.7913350  31.5283450  69.6072150   1.8496470  32.5911180  69.0822220
  10.0991100  31.3064750  56.5610440  10.2743290  30.6202490  55.9171360
   9.4012670  31.8311800  56.1687110   5.6525110  13.8437510  69.9058540
   5.5390560  14.1632120  70.8010060   6.4694850  14.2450020  69.6095820
   8.4323600  30.9909040  69.3877230   9.2248920  30.4958270  69.1803190
   8.7256750  31.6699180  69.9952840   4.5583260  21.8629980  40.2693280
   4.4777310  20.9484590  39.9984990   4.1447680  22.3597050  39.5632990
   2.6901300  23.6409000  42.1502550   1.9143400  23.1609440  42.4401120
   3.3414230  22.9614650  41.9758710   6.7108730  28.0469190  40.9301680
   6.2490260  27.2756430  41.2588850   7.5234280  28.0735260  41.4354130
   2.9372040  30.3327200  40.5505670   2.3183480  30.7884700  39.9800110
   3.7923820  30.4878660  40.1495370   2.1310290  26.3166190  42.1572710
   2.0618570  25.3756130  41.9961840   2.8930150  26.4067600  42.7295280
   3.1615460  19.1236570  42.3841640   3.5380280  18.2508450  42.2715310
   3.0634970  19.4595270  41.4932080   6.9439580  16.6187010  39.3169980
   7.7649200  16.1283580  39.3595460   6.9773660  17.2084670  40.0701820
  11.2339130  18.6353760  45.8813610  10.5291300  19.0235470  45.3628720
  11.4997050  19.3304050  46.4834540   3.8035390  25.2166440  37.9437580
   3.1852660  25.6815890  37.3800300   4.3158640  25.9093920  38.3607090
   7.1801060  18.5587390  42.0897520   6.4756630  18.8472280  42.6700630
   7.5413220  19.3687500  41.7297080   8.7963840  28.1762520  44.3525000
   8.1127360  28.8461630  44.3441670   9.3358130  28.3743170  43.5869860
  10.2487980  18.0042180  42.4806730   9.3012890  18.0381160  42.6122160
  10.5737970  18.8181130  42.8656090   6.3322580  30.0206650  43.0670180
   6.3449740  29.6168940  42.1992440   5.7797800  30.7953940  42.9631610
   7.6268000  26.7422870  38.1560350   7.5164330  25.7997200  38.2809770
   7.6236250  27.1038510  39.0423110   5.7308020  24.9236490  44.3952790
   6.1476810  24.7096600  43.5606250   6.4547840  25.1809280  44.9661410
   3.1688280  22.3688190  37.5122840   2.2417560  22.3025570  37.7411310
   3.3213100  23.3068320  37.3978080   3.1557360  18.6405190  34.5090000
   2.2161030  18.8019150  34.5942460   3.4740620  19.3590870  33.9625990
   9.6770120  23.3223710  44.4869030   8.8488750  23.3916800  44.0119160
  10.2720600  23.9078020  44.0184860   7.1985570  23.9308490  38.0158090
   6.5797990  23.5928040  37.3684390   7.1810020  23.2868250  38.7237280
   6.6412130  20.1093030  45.4323900   6.2283310  20.9346740  45.6863890
   5.9088080  19.5238070  45.2400260   7.3312230  30.1552360  46.1204880
   6.8542790  30.9624550  45.9277490   6.6474020  29.5030690  46.2731090
   5.3750270  23.1695300  35.0230840   5.8143550  22.3317730  34.8768660
   6.0878690  23.8024700  35.1094980   3.4845650  28.1091370  38.9912080
   3.9241560  28.8515700  38.5767470   3.4232540  28.3517940  39.9151040
   8.9567410  14.4238110  33.3371880   8.6440070  14.5164940  34.2370950
   9.7179880  15.0019140  33.2869310  10.9111440  29.9164300  51.1896270
  11.3871160  30.3947190  51.8685350  11.5318600  29.8481790  50.4641770
  10.3144690  27.1077150  48.3496280  10.4407750  26.8689030  47.4313460
  10.3566070  26.2761690  48.8218360   4.1761430  30.8105150  46.9191090
   4.6906100  30.7213160  47.7213520   3.3330510  31.1564850  47.2119000
   6.1515830  31.0960490  36.3475090   5.9916970  30.8063430  37.2456920
   5.9862540  30.3200620  35.8120320   5.8541960  28.6048050  34.9073090
   5.1607120  28.6025340  34.2475370   6.5964820  28.1807370  34.4767260
   5.4191890  30.2310760  38.9821580   5.8748840  29.4500140  39.2960200
   5.7584410  30.9417580  39.5262760  10.1668700  19.1609610  49.3146020
   9.5512970  19.6689280  48.7861480   9.8465120  18.2607940  49.2571960
   2.2283020  18.0001500  46.7808210   1.7662390  18.2084520  47.5928150
   1.8261130  17.1860850  46.4778880   7.2287530  19.2210450  47.9104870
   6.3781120  18.9216200  48.2313940   7.0689320  19.4652460  46.9988690
   4.3237240  20.7212200  50.0103660   4.6490650  19.8875950  49.6705890
   5.1117570  21.2440720  50.1581990   4.9625190  20.2629920  37.5044790
   4.3634080  20.9865720  37.3208410   5.5104800  20.2006700  36.7221240
   3.5690060  18.8993460  39.5348070   3.9619630  19.2165660  38.7216760
   3.9306910  18.0205340  39.6492590   4.1545200  21.4899210  43.6298850
   3.4226320  21.9986020  43.9788950   3.7569540  20.6729190  43.3287630
   4.6171110  16.9432890  43.0421790   4.6343850  17.3941540  43.8863640
   4.3686690  16.0438530  43.2555230   8.0441860  14.3565070  48.8808170
   8.3687630  13.6254730  49.4066150   8.0798370  14.0378710  47.9789160
   7.9699700  24.4690180  42.4894200   8.6898820  24.9645470  42.0990310
   7.7681520  23.7908070  41.8448070   3.4309640  15.8628140  36.6323590
   2.6174250  15.3641310  36.5568900   3.2371590  16.7026390  36.2159940
   3.3518500  24.5399240  48.3763200   3.2855810  23.6194910  48.1220790
   2.7223640  24.6374680  49.0907840   6.1458030  20.2347790  34.9285750
   7.0337650  20.5465020  34.7537090   6.1163120  19.3620040  34.5366330
   3.2835230  27.3619810  48.1267000   3.2979770  26.4300770  47.9085910
   2.5760330  27.4479570  48.7656770   8.4172300  21.5459630  34.3965610
   8.3336020  21.9773850  33.5462050   9.1366490  22.0057980  34.8292430
   9.4946440  24.0027150  47.4735580   8.7694630  24.5955930  47.2764970
  10.0221900  23.9950690  46.6748950   9.4459550  28.4001890  37.1247740
   8.8035710  27.7457510  37.3991460   9.0590210  28.8056980  36.3488410
   5.0246030  25.7287320  40.9719430   5.3769850  25.1315450  40.3120800
   4.1408360  25.4031550  41.1427680   2.7169130  29.0037380  45.2207500
   3.3611350  29.2096760  45.8980920   3.0798570  28.2425780  44.7678350
   3.9901210  27.0069730  43.9384950   4.6323440  26.3062890  44.0517120
   4.5150560  27.7868170  43.7581840   7.8356930  27.2918350  33.6624090
   7.6094510  26.5748790  34.2548730   7.4453130  27.0430790  32.8245840
   5.7638830  27.8064630  47.1421010   6.0995070  28.3931320  47.8198930
   4.8439170  27.6757340  47.3718800   7.4173180  25.2090290  35.3238250
   7.1294880  25.6702980  36.1116130   8.2125350  24.7488060  35.5922470
   4.8081010  18.0882120  45.6745870   5.1761830  17.2677330  46.0025440
   3.9479210  18.1484010  46.0901520   8.1743040  17.0439060  36.4833430
   7.5456200  17.1484730  35.7691660   7.6794960  17.2635840  37.2727310
   2.6201180  28.7644650  33.9167410   2.7213160  28.5608640  32.9869390
   1.7202920  28.5102930  34.1215190   1.7683000  20.7421710  45.8983840
   2.2668250  21.2167530  46.5635690   1.9105950  19.8185230  46.1053870
   4.1742500  16.0475670  39.3387100   4.0510280  16.0661800  38.3896610
   5.1227060  16.0954610  39.4585500   8.9749860  16.9589670  46.7412230
   8.4723460  17.6995070  47.0806040   9.7906520  17.3473670  46.4249020
   7.2671870  22.2022850  40.1873590   6.3262010  22.2173080  40.3621280
   7.5815940  21.4158810  40.6333890   9.2697450  29.3731700  41.8627850
   9.3944870  30.1962870  42.3351660  10.1363010  29.1622430  41.5152000
   4.5837890  26.7588850  50.6705970   3.9776050  26.7820450  49.9301720
   4.2792000  26.0271890  51.2073220   6.0138260  30.4869140  49.2815380
   6.9660010  30.4027160  49.2315620   5.8666480  31.1510850  49.9549170
   8.9047460  29.8663350  34.7807290   8.6188970  29.4528490  33.9661470
   8.7067010  30.7951060  34.6607810   3.6097420  24.9216660  33.8254890
   3.0607520  25.3685960  34.4697630   4.2316680  24.4165910  34.3492560
   7.6632360  26.2758760  49.7577150   8.4041830  26.6134520  49.2544610
   6.9005040  26.4450820  49.2046920   1.7900180  22.9045190  32.9697290
   2.3105840  22.1894210  32.6038440   2.4368580  23.5431060  33.2697800
   6.3378020  24.3273590  48.2932360   6.7519040  24.4818670  49.1422780
   5.4029020  24.4528810  48.4558140   6.8100190  21.6669750  50.2971510
   7.3920960  20.9122070  50.2091990   6.9861960  22.1977190  49.5202990
   3.4357150  22.0110250  47.6466130   3.5553360  21.4151390  48.3860970
   4.2951150  22.0479940  47.2267430   5.7745050  22.5647440  46.2228640
   5.2480270  23.0890060  45.6193780   6.1176390  23.1974830  46.8538370
   5.0219350  18.1697410  49.1374970   4.3334870  17.5078950  49.0724960
   5.7425370  17.7235680  49.5823430   5.6519750  14.7649040  35.1965230
   5.9322040  13.9216940  35.5524650   4.8785480  14.9972150  35.7103980
   2.3548210  30.9856800  35.2599030   3.2499000  31.3241770  35.2817790
   2.3865840  30.2636210  34.6323310   9.3342560  29.5160470  47.9665230
   8.7344550  29.5753030  47.2229150   9.4636460  28.5765450  48.0962080
  10.5744010  27.2578290  33.3034940   9.7436970  27.3254940  33.7742170
  10.7515840  28.1482410  33.0001800  10.0300470  24.0025770  35.8069140
  10.7919380  24.5722420  35.9128830  10.0454840  23.4352970  36.5777450
  11.0360440  24.8575870  40.6511070  11.4069270  24.0743190  40.2447040
  11.6762370  25.5464970  40.4728370   8.0194200  26.2412450  46.0641390
   7.2054040  26.6709610  46.3267180   8.4268400  26.8530860  45.4510440
  10.0819640  24.2960140  32.9641660  10.3568480  25.2039020  32.8360880
   9.8930380  24.2322670  33.9003650   6.4795250  17.3204990  34.2595290
   6.8980130  17.1335970  33.4191950   6.1731310  16.4684040  34.5698220
   9.9784980  22.2329130  37.9571090   9.6028580  21.4657060  37.5252380
   9.2488100  22.6151830  38.4446020   9.3684600  21.3800650  47.5910610
   9.1370690  21.1513400  46.6908560   9.6289150  22.3000200  47.5455500
   7.8072670  16.6057080  50.3690310   8.6842850  16.6140480  50.7524310
   7.8193510  15.8687920  49.7582660   9.2535940  20.4586620  41.2578330
   9.7773420  19.9649270  40.6268500   9.8395360  20.5936980  42.0025900
   9.4325660  20.5426490  44.7797880   8.4828370  20.5090030  44.8942870
   9.6138670  21.4526600  44.5447650   8.7435910  19.7159970  37.1970740
   9.2395030  19.4830840  37.9819620   8.5451980  18.8771810  36.7808380
  10.1723070  18.3520920  39.7308420  10.0622350  18.1976960  40.6690690
  10.9330660  17.8241860  39.4883830   8.5188790  14.2915050  46.1891420
   9.1561010  14.9049190  46.5550610   8.6663680  14.3275710  45.2440650
  11.0613340  16.1828840  32.9714560  11.9862650  16.0510020  32.7632850
  11.0389130  16.2621660  33.9251010  11.1351830  16.9539500  35.5971270
  10.3403330  16.8884620  36.1264180  11.3395110  17.8890140  35.5856620
   8.0770250  30.9931050  39.5909660   8.6729320  30.6715620  38.9144080
   8.3348400  30.5202870  40.3822930   1.8893270  15.4441240  49.0966520
   1.8282160  16.0363070  49.8461930   2.8293650  15.3367200  48.9516780
   4.5267830  15.1011300  48.7358810   5.1408240  15.4190590  48.0739890
   5.0717390  14.6159890  49.3554670  10.9443010  31.0002930  46.1420650
  10.4501290  31.3971800  45.4247780  10.3356300  30.3752140  46.5357930
   5.2675870  13.6643440  45.0628100   4.3935710  13.9978550  44.8601030
   5.1586620  13.1916620  45.8879970   6.1747850  15.8714310  46.4469820
   5.8461210  15.0566070  46.0671550   7.1230150  15.8284120  46.3235510
   8.6282460  31.6426350  43.4207390   8.1685430  32.3942160  43.0465410
   7.9994920  30.9232820  43.3622190   1.7973680  30.8423080  43.4224500
   2.0851490  30.5877380  42.5457510   2.3096900  30.2900440  44.0130070
   3.0150690  14.5813280  44.0021010   2.2322480  15.0558780  44.2817770
   2.7213620  13.6768110  43.8934190   7.5671760  15.2836380  42.0470100
   8.0079850  15.2281480  41.1991700   7.2979350  16.1994390  42.1180280
   9.4310330  14.9151620  40.0578920   9.3698730  13.9712840  39.9109940
  10.2102360  15.0231710  40.6032380   5.4029890  13.6642480  40.7520110
   6.0059260  14.2362690  41.2268630   4.6622880  14.2281920  40.5294010
   8.5464490  14.0664040  36.0260390   8.7415120  14.9647490  36.2927820
   7.7594360  13.8351120  36.5193340   1.8646040  31.7639180  50.7892700
   2.7913350  31.5283450  50.8328660   1.8496470  32.5911180  50.3078730
  10.0991100  31.3064750  37.7866950  10.2743290  30.6202490  37.1427870
   9.4012670  31.8311800  37.3943620   5.6525110  13.8437510  51.1315050
   5.5390560  14.1632120  52.0266570   6.4694850  14.2450020  50.8352330
   8.4323600  30.9909040  50.6133740   9.2248920  30.4958270  50.4059700
   8.7256750  31.6699180  51.2209350   4.5583260  21.8629980  21.4949790
   4.4777310  20.9484590  21.2241500   4.1447680  22.3597050  20.7889500
   2.6901300  23.6409000  23.3759060   1.9143400  23.1609440  23.6657630
   3.3414230  22.9614650  23.2015220   6.7108730  28.0469190  22.1558190
   6.2490260  27.2756430  22.4845360   7.5234280  28.0735260  22.6610640
   2.9372040  30.3327200  21.7762180   2.3183480  30.7884700  21.2056620
   3.7923820  30.4878660  21.3751880   2.1310290  26.3166190  23.3829220
   2.0618570  25.3756130  23.2218350   2.8930150  26.4067600  23.9551790
   3.1615460  19.1236570  23.6098150   3.5380280  18.2508450  23.4971820
   3.0634970  19.4595270  22.7188590   6.9439580  16.6187010  20.5426490
   7.7649200  16.1283580  20.5851970   6.9773660  17.2084670  21.2958330
  11.2339130  18.6353760  27.1070120  10.5291300  19.0235470  26.5885230
  11.4997050  19.3304050  27.7091050   3.8035390  25.2166440  19.1694090
   3.1852660  25.6815890  18.6056810   4.3158640  25.9093920  19.5863600
   7.1801060  18.5587390  23.3154030   6.4756630  18.8472280  23.8957140
   7.5413220  19.3687500  22.9553590   8.7963840  28.1762520  25.5781510
   8.1127360  28.8461630  25.5698180   9.3358130  28.3743170  24.8126370
  10.2487980  18.0042180  23.7063240   9.3012890  18.0381160  23.8378670
  10.5737970  18.8181130  24.0912600   6.3322580  30.0206650  24.2926690
   6.3449740  29.6168940  23.4248950   5.7797800  30.7953940  24.1888120
   7.6268000  26.7422870  19.3816860   7.5164330  25.7997200  19.5066280
   7.6236250  27.1038510  20.2679620   5.7308020  24.9236490  25.6209300
   6.1476810  24.7096600  24.7862760   6.4547840  25.1809280  26.1917920
   3.1688280  22.3688190  18.7379350   2.2417560  22.3025570  18.9667820
   3.3213100  23.3068320  18.6234590   3.1557360  18.6405190  15.7346510
   2.2161030  18.8019150  15.8198970   3.4740620  19.3590870  15.1882500
   9.6770120  23.3223710  25.7125540   8.8488750  23.3916800  25.2375670
  10.2720600  23.9078020  25.2441370   7.1985570  23.9308490  19.2414600
   6.5797990  23.5928040  18.5940900   7.1810020  23.2868250  19.9493790
   6.6412130  20.1093030  26.6580410   6.2283310  20.9346740  26.9120400
   5.9088080  19.5238070  26.4656770   7.3312230  30.1552360  27.3461390
   6.8542790  30.9624550  27.1534000   6.6474020  29.5030690  27.4987600
   5.3750270  23.1695300  16.2487350   5.8143550  22.3317730  16.1025170
   6.0878690  23.8024700  16.3351490   3.4845650  28.1091370  20.2168590
   3.9241560  28.8515700  19.8023980   3.4232540  28.3517940  21.1407550
   8.9567410  14.4238110  14.5628390   8.6440070  14.5164940  15.4627460
   9.7179880  15.0019140  14.5125820  10.9111440  29.9164300  32.4152780
  11.3871160  30.3947190  33.0941860  11.5318600  29.8481790  31.6898280
  10.3144690  27.1077150  29.5752790  10.4407750  26.8689030  28.6569970
  10.3566070  26.2761690  30.0474870   4.1761430  30.8105150  28.1447600
   4.6906100  30.7213160  28.9470030   3.3330510  31.1564850  28.4375510
   6.1515830  31.0960490  17.5731600   5.9916970  30.8063430  18.4713430
   5.9862540  30.3200620  17.0376830   5.8541960  28.6048050  16.1329600
   5.1607120  28.6025340  15.4731880   6.5964820  28.1807370  15.7023770
   5.4191890  30.2310760  20.2078090   5.8748840  29.4500140  20.5216710
   5.7584410  30.9417580  20.7519270  10.1668700  19.1609610  30.5402530
   9.5512970  19.6689280  30.0117990   9.8465120  18.2607940  30.4828470
   2.2283020  18.0001500  28.0064720   1.7662390  18.2084520  28.8184660
   1.8261130  17.1860850  27.7035390   7.2287530  19.2210450  29.1361380
   6.3781120  18.9216200  29.4570450   7.0689320  19.4652460  28.2245200
   4.3237240  20.7212200  31.2360170   4.6490650  19.8875950  30.8962400
   5.1117570  21.2440720  31.3838500   4.9625190  20.2629920  18.7301300
   4.3634080  20.9865720  18.5464920   5.5104800  20.2006700  17.9477750
   3.5690060  18.8993460  20.7604580   3.9619630  19.2165660  19.9473270
   3.9306910  18.0205340  20.8749100   4.1545200  21.4899210  24.8555360
   3.4226320  21.9986020  25.2045460   3.7569540  20.6729190  24.5544140
   4.6171110  16.9432890  24.2678300   4.6343850  17.3941540  25.1120150
   4.3686690  16.0438530  24.4811740   8.0441860  14.3565070  30.1064680
   8.3687630  13.6254730  30.6322660   8.0798370  14.0378710  29.2045670
   7.9699700  24.4690180  23.7150710   8.6898820  24.9645470  23.3246820
   7.7681520  23.7908070  23.0704580   3.4309640  15.8628140  17.8580100
   2.6174250  15.3641310  17.7825410   3.2371590  16.7026390  17.4416450
   3.3518500  24.5399240  29.6019710   3.2855810  23.6194910  29.3477300
   2.7223640  24.6374680  30.3164350   6.1458030  20.2347790  16.1542260
   7.0337650  20.5465020  15.9793600   6.1163120  19.3620040  15.7622840
   3.2835230  27.3619810  29.3523510   3.2979770  26.4300770  29.1342420
   2.5760330  27.4479570  29.9913280   8.4172300  21.5459630  15.6222120
   8.3336020  21.9773850  14.7718560   9.1366490  22.0057980  16.0548940
   9.4946440  24.0027150  28.6992090   8.7694630  24.5955930  28.5021480
  10.0221900  23.9950690  27.9005460   9.4459550  28.4001890  18.3504250
   8.8035710  27.7457510  18.6247970   9.0590210  28.8056980  17.5744920
   5.0246030  25.7287320  22.1975940   5.3769850  25.1315450  21.5377310
   4.1408360  25.4031550  22.3684190   2.7169130  29.0037380  26.4464010
   3.3611350  29.2096760  27.1237430   3.0798570  28.2425780  25.9934860
   3.9901210  27.0069730  25.1641460   4.6323440  26.3062890  25.2773630
   4.5150560  27.7868170  24.9838350   7.8356930  27.2918350  14.8880600
   7.6094510  26.5748790  15.4805240   7.4453130  27.0430790  14.0502350
   5.7638830  27.8064630  28.3677520   6.0995070  28.3931320  29.0455440
   4.8439170  27.6757340  28.5975310   7.4173180  25.2090290  16.5494760
   7.1294880  25.6702980  17.3372640   8.2125350  24.7488060  16.8178980
   4.8081010  18.0882120  26.9002380   5.1761830  17.2677330  27.2281950
   3.9479210  18.1484010  27.3158030   8.1743040  17.0439060  17.7089940
   7.5456200  17.1484730  16.9948170   7.6794960  17.2635840  18.4983820
   2.6201180  28.7644650  15.1423920   2.7213160  28.5608640  14.2125900
   1.7202920  28.5102930  15.3471700   1.7683000  20.7421710  27.1240350
   2.2668250  21.2167530  27.7892200   1.9105950  19.8185230  27.3310380
   4.1742500  16.0475670  20.5643610   4.0510280  16.0661800  19.6153120
   5.1227060  16.0954610  20.6842010   8.9749860  16.9589670  27.9668740
   8.4723460  17.6995070  28.3062550   9.7906520  17.3473670  27.6505530
   7.2671870  22.2022850  21.4130100   6.3262010  22.2173080  21.5877790
   7.5815940  21.4158810  21.8590400   9.2697450  29.3731700  23.0884360
   9.3944870  30.1962870  23.5608170  10.1363010  29.1622430  22.7408510
   4.5837890  26.7588850  31.8962480   3.9776050  26.7820450  31.1558230
   4.2792000  26.0271890  32.4329730   6.0138260  30.4869140  30.5071890
   6.9660010  30.4027160  30.4572130   5.8666480  31.1510850  31.1805680
   8.9047460  29.8663350  16.0063800   8.6188970  29.4528490  15.1917980
   8.7067010  30.7951060  15.8864320   3.6097420  24.9216660  15.0511400
   3.0607520  25.3685960  15.6954140   4.2316680  24.4165910  15.5749070
   7.6632360  26.2758760  30.9833660   8.4041830  26.6134520  30.4801120
   6.9005040  26.4450820  30.4303430   1.7900180  22.9045190  14.1953800
   2.3105840  22.1894210  13.8294950   2.4368580  23.5431060  14.4954310
   6.3378020  24.3273590  29.5188870   6.7519040  24.4818670  30.3679290
   5.4029020  24.4528810  29.6814650   6.8100190  21.6669750  31.5228020
   7.3920960  20.9122070  31.4348500   6.9861960  22.1977190  30.7459500
   3.4357150  22.0110250  28.8722640   3.5553360  21.4151390  29.6117480
   4.2951150  22.0479940  28.4523940   5.7745050  22.5647440  27.4485150
   5.2480270  23.0890060  26.8450290   6.1176390  23.1974830  28.0794880
   5.0219350  18.1697410  30.3631480   4.3334870  17.5078950  30.2981470
   5.7425370  17.7235680  30.8079940   5.6519750  14.7649040  16.4221740
   5.9322040  13.9216940  16.7781160   4.8785480  14.9972150  16.9360490
   2.3548210  30.9856800  16.4855540   3.2499000  31.3241770  16.5074300
   2.3865840  30.2636210  15.8579820   9.3342560  29.5160470  29.1921740
   8.7344550  29.5753030  28.4485660   9.4636460  28.5765450  29.3218590
  10.5744010  27.2578290  14.5291450   9.7436970  27.3254940  14.9998680
  10.7515840  28.1482410  14.2258310  10.0300470  24.0025770  17.0325650
  10.7919380  24.5722420  17.1385340  10.0454840  23.4352970  17.8033960
  11.0360440  24.8575870  21.8767580  11.4069270  24.0743190  21.4703550
  11.6762370  25.5464970  21.6984880   8.0194200  26.2412450  27.2897900
   7.2054040  26.6709610  27.5523690   8.4268400  26.8530860  26.6766950
  10.0819640  24.2960140  14.1898170  10.3568480  25.2039020  14.0617390
   9.8930380  24.2322670  15.1260160   6.4795250  17.3204990  15.4851800
   6.8980130  17.1335970  14.6448460   6.1731310  16.4684040  15.7954730
   9.9784980  22.2329130  19.1827600   9.6028580  21.4657060  18.7508890
   9.2488100  22.6151830  19.6702530   9.3684600  21.3800650  28.8167120
   9.1370690  21.1513400  27.9165070   9.6289150  22.3000200  28.7712010
   7.8072670  16.6057080  31.5946820   8.6842850  16.6140480  31.9780820
   7.8193510  15.8687920  30.9839170   9.2535940  20.4586620  22.4834840
   9.7773420  19.9649270  21.8525010   9.8395360  20.5936980  23.2282410
   9.4325660  20.5426490  26.0054390   8.4828370  20.5090030  26.1199380
   9.6138670  21.4526600  25.7704160   8.7435910  19.7159970  18.4227250
   9.2395030  19.4830840  19.2076130   8.5451980  18.8771810  18.0064890
  10.1723070  18.3520920  20.9564930  10.0622350  18.1976960  21.8947200
  10.9330660  17.8241860  20.7140340   8.5188790  14.2915050  27.4147930
   9.1561010  14.9049190  27.7807120   8.6663680  14.3275710  26.4697160
  11.0613340  16.1828840  14.1971070  11.9862650  16.0510020  13.9889360
  11.0389130  16.2621660  15.1507520  11.1351830  16.9539500  16.8227780
  10.3403330  16.8884620  17.3520690  11.3395110  17.8890140  16.8113130
   8.0770250  30.9931050  20.8166170   8.6729320  30.6715620  20.1400590
   8.3348400  30.5202870  21.6079440   1.8893270  15.4441240  30.3223030
   1.8282160  16.0363070  31.0718440   2.8293650  15.3367200  30.1773290
   4.5267830  15.1011300  29.9615320   5.1408240  15.4190590  29.2996400
   5.0717390  14.6159890  30.5811180  10.9443010  31.0002930  27.3677160
  10.4501290  31.3971800  26.6504290  10.3356300  30.3752140  27.7614440
   5.2675870  13.6643440  26.2884610   4.3935710  13.9978550  26.0857540
   5.1586620  13.1916620  27.1136480   6.1747850  15.8714310  27.6726330
   5.8461210  15.0566070  27.2928060   7.1230150  15.8284120  27.5492020
   8.6282460  31.6426350  24.6463900   8.1685430  32.3942160  24.2721920
   7.9994920  30.9232820  24.5878700   1.7973680  30.8423080  24.6481010
   2.0851490  30.5877380  23.7714020   2.3096900  30.2900440  25.2386580
   3.0150690  14.5813280  25.2277520   2.2322480  15.0558780  25.5074280
   2.7213620  13.6768110  25.1190700   7.5671760  15.2836380  23.2726610
   8.0079850  15.2281480  22.4248210   7.2979350  16.1994390  23.3436790
   9.4310330  14.9151620  21.2835430   9.3698730  13.9712840  21.1366450
  10.2102360  15.0231710  21.8288890   5.4029890  13.6642480  21.9776620
   6.0059260  14.2362690  22.4525140   4.6622880  14.2281920  21.7550520
   8.5464490  14.0664040  17.2516900   8.7415120  14.9647490  17.5184330
   7.7594360  13.8351120  17.7449850   1.8646040  31.7639180  32.0149210
   2.7913350  31.5283450  32.0585170   1.8496470  32.5911180  31.5335240
  10.0991100  31.3064750  19.0123460  10.2743290  30.6202490  18.3684380
   9.4012670  31.8311800  18.6200130   5.6525110  13.8437510  32.3571560
   5.5390560  14.1632120  33.2523080   6.4694850  14.2450020  32.0608840
   8.4323600  30.9909040  31.8390250   9.2248920  30.4958270  31.6316210
   8.7256750  31.6699180  32.4465860   4.5583260  21.8629980   2.7206300
   4.4777310  20.9484590   2.4498010   4.1447680  22.3597050   2.0146010
   2.6901300  23.6409000   4.6015570   1.9143400  23.1609440   4.8914140
   3.3414230  22.9614650   4.4271730   6.7108730  28.0469190   3.3814700
   6.2490260  27.2756430   3.7101870   7.5234280  28.0735260   3.8867150
   2.9372040  30.3327200   3.0018690   2.3183480  30.7884700   2.4313130
   3.7923820  30.4878660   2.6008390   2.1310290  26.3166190   4.6085730
   2.0618570  25.3756130   4.4474860   2.8930150  26.4067600   5.1808300
   3.1615460  19.1236570   4.8354660   3.5380280  18.2508450   4.7228330
   3.0634970  19.4595270   3.9445100   6.9439580  16.6187010   1.7683000
   7.7649200  16.1283580   1.8108480   6.9773660  17.2084670   2.5214840
  11.2339130  18.6353760   8.3326630  10.5291300  19.0235470   7.8141740
  11.4997050  19.3304050   8.9347560   7.1801060  18.5587390   4.5410540
   6.4756630  18.8472280   5.1213650   7.5413220  19.3687500   4.1810100
   8.7963840  28.1762520   6.8038020   8.1127360  28.8461630   6.7954690
   9.3358130  28.3743170   6.0382880  10.2487980  18.0042180   4.9319750
   9.3012890  18.0381160   5.0635180  10.5737970  18.8181130   5.3169110
   6.3322580  30.0206650   5.5183200   6.3449740  29.6168940   4.6505460
   5.7797800  30.7953940   5.4144630   5.7308020  24.9236490   6.8465810
   6.1476810  24.7096600   6.0119270   6.4547840  25.1809280   7.4174430
   9.6770120  23.3223710   6.9382050   8.8488750  23.3916800   6.4632180
  10.2720600  23.9078020   6.4697880   6.6412130  20.1093030   7.8836920
   6.2283310  20.9346740   8.1376910   5.9088080  19.5238070   7.6913280
   7.3312230  30.1552360   8.5717900   6.8542790  30.9624550   8.3790510
   6.6474020  29.5030690   8.7244110  10.9111440  29.9164300  13.6409290
  11.3871160  30.3947190  14.3198370  11.5318600  29.8481790  12.9154790
  10.3144690  27.1077150  10.8009300  10.4407750  26.8689030   9.8826480
  10.3566070  26.2761690  11.2731380   4.1761430  30.8105150   9.3704110
   4.6906100  30.7213160  10.1726540   3.3330510  31.1564850   9.6632020
  10.1668700  19.1609610  11.7659040   9.5512970  19.6689280  11.2374500
   9.8465120  18.2607940  11.7084980   2.2283020  18.0001500   9.2321230
   1.7662390  18.2084520  10.0441170   1.8261130  17.1860850   8.9291900
   7.2287530  19.2210450  10.3617890   6.3781120  18.9216200  10.6826960
   7.0689320  19.4652460   9.4501710   4.3237240  20.7212200  12.4616680
   4.6490650  19.8875950  12.1218910   5.1117570  21.2440720  12.6095010
   4.1545200  21.4899210   6.0811870   3.4226320  21.9986020   6.4301970
   3.7569540  20.6729190   5.7800650   4.6171110  16.9432890   5.4934810
   4.6343850  17.3941540   6.3376660   4.3686690  16.0438530   5.7068250
   8.0441860  14.3565070  11.3321190   8.3687630  13.6254730  11.8579170
   8.0798370  14.0378710  10.4302180   7.9699700  24.4690180   4.9407220
   8.6898820  24.9645470   4.5503330   7.7681520  23.7908070   4.2961090
   3.3518500  24.5399240  10.8276220   3.2855810  23.6194910  10.5733810
   2.7223640  24.6374680  11.5420860   3.2835230  27.3619810  10.5780020
   3.2979770  26.4300770  10.3598930   2.5760330  27.4479570  11.2169790
   9.4946440  24.0027150   9.9248600   8.7694630  24.5955930   9.7277990
  10.0221900  23.9950690   9.1261970   5.0246030  25.7287320   3.4232450
   5.3769850  25.1315450   2.7633820   4.1408360  25.4031550   3.5940700
   2.7169130  29.0037380   7.6720520   3.3611350  29.2096760   8.3493940
   3.0798570  28.2425780   7.2191370   3.9901210  27.0069730   6.3897970
   4.6323440  26.3062890   6.5030140   4.5150560  27.7868170   6.2094860
   5.7638830  27.8064630   9.5934030   6.0995070  28.3931320  10.2711950
   4.8439170  27.6757340   9.8231820   4.8081010  18.0882120   8.1258890
   5.1761830  17.2677330   8.4538460   3.9479210  18.1484010   8.5414540
   1.7683000  20.7421710   8.3496860   2.2668250  21.2167530   9.0148710
   1.9105950  19.8185230   8.5566890   8.9749860  16.9589670   9.1925250
   8.4723460  17.6995070   9.5319060   9.7906520  17.3473670   8.8762040
   7.2671870  22.2022850   2.6386610   6.3262010  22.2173080   2.8134300
   7.5815940  21.4158810   3.0846910   9.2697450  29.3731700   4.3140870
   9.3944870  30.1962870   4.7864680  10.1363010  29.1622430   3.9665020
   4.5837890  26.7588850  13.1218990   3.9776050  26.7820450  12.3814740
   4.2792000  26.0271890  13.6586240   6.0138260  30.4869140  11.7328400
   6.9660010  30.4027160  11.6828640   5.8666480  31.1510850  12.4062190
   7.6632360  26.2758760  12.2090170   8.4041830  26.6134520  11.7057630
   6.9005040  26.4450820  11.6559940   6.3378020  24.3273590  10.7445380
   6.7519040  24.4818670  11.5935800   5.4029020  24.4528810  10.9071160
   6.8100190  21.6669750  12.7484530   7.3920960  20.9122070  12.6605010
   6.9861960  22.1977190  11.9716010   3.4357150  22.0110250  10.0979150
   3.5553360  21.4151390  10.8373990   4.2951150  22.0479940   9.6780450
   5.7745050  22.5647440   8.6741660   5.2480270  23.0890060   8.0706800
   6.1176390  23.1974830   9.3051390   5.0219350  18.1697410  11.5887990
   4.3334870  17.5078950  11.5237980   5.7425370  17.7235680  12.0336450
   9.3342560  29.5160470  10.4178250   8.7344550  29.5753030   9.6742170
   9.4636460  28.5765450  10.5475100  11.0360440  24.8575870   3.1024090
  11.4069270  24.0743190   2.6960060  11.6762370  25.5464970   2.9241390
   8.0194200  26.2412450   8.5154410   7.2054040  26.6709610   8.7780200
   8.4268400  26.8530860   7.9023460   9.3684600  21.3800650  10.0423630
   9.1370690  21.1513400   9.1421580   9.6289150  22.3000200   9.9968520
   7.8072670  16.6057080  12.8203330   8.6842850  16.6140480  13.2037330
   7.8193510  15.8687920  12.2095680   9.2535940  20.4586620   3.7091350
   9.7773420  19.9649270   3.0781520   9.8395360  20.5936980   4.4538920
   9.4325660  20.5426490   7.2310900   8.4828370  20.5090030   7.3455890
   9.6138670  21.4526600   6.9960670  10.1723070  18.3520920   2.1821440
  10.0622350  18.1976960   3.1203710  10.9330660  17.8241860   1.9396850
   8.5188790  14.2915050   8.6404440   9.1561010  14.9049190   9.0063630
   8.6663680  14.3275710   7.6953670   1.8893270  15.4441240  11.5479540
   1.8282160  16.0363070  12.2974950   2.8293650  15.3367200  11.4029800
   4.5267830  15.1011300  11.1871830   5.1408240  15.4190590  10.5252910
   5.0717390  14.6159890  11.8067690  10.9443010  31.0002930   8.5933670
  10.4501290  31.3971800   7.8760800  10.3356300  30.3752140   8.9870950
   5.2675870  13.6643440   7.5141120   4.3935710  13.9978550   7.3114050
   5.1586620  13.1916620   8.3392990   6.1747850  15.8714310   8.8982840
   5.8461210  15.0566070   8.5184570   7.1230150  15.8284120   8.7748530
   8.6282460  31.6426350   5.8720410   8.1685430  32.3942160   5.4978430
   7.9994920  30.9232820   5.8135210   1.7973680  30.8423080   5.8737520
   2.0851490  30.5877380   4.9970530   2.3096900  30.2900440   6.4643090
   3.0150690  14.5813280   6.4534030   2.2322480  15.0558780   6.7330790
   2.7213620  13.6768110   6.3447210   7.5671760  15.2836380   4.4983120
   8.0079850  15.2281480   3.6504720   7.2979350  16.1994390   4.5693300
   9.4310330  14.9151620   2.5091940   9.3698730  13.9712840   2.3622960
  10.2102360  15.0231710   3.0545400   5.4029890  13.6642480   3.2033130
   6.0059260  14.2362690   3.6781650   4.6622880  14.2281920   2.9807030
   1.8646040  31.7639180  13.2405720   2.7913350  31.5283450  13.2841680
   1.8496470  32.5911180  12.7591750   5.6525110  13.8437510  13.5828070
   5.5390560  14.1632120  14.4779590   6.4694850  14.2450020  13.2865350
   8.4323600  30.9909040  13.0646760   9.2248920  30.4958270  12.8572720
   8.7256750  31.6699180  13.6722370   4.5583260   3.0886490  77.8180260
   4.4777310   2.1741100  77.5471970   4.1447680   3.5853560  77.1119970
   2.6901300   4.8665510  79.6989530   1.9143400   4.3865950  79.9888100
   3.3414230   4.1871160  79.5245690   6.7108730   9.2725700  78.4788660
   6.2490260   8.5012940  78.8075830   7.5234280   9.2991770  78.9841110
   2.9372040  11.5583710  78.0992650   2.3183480  12.0141210  77.5287090
   3.7923820  11.7135170  77.6982350   2.1310290   7.5422700  79.7059690
   2.0618570   6.6012640  79.5448820   2.8930150   7.6324110  80.2782260
   3.8035390   6.4422950  75.4924560   3.1852660   6.9072400  74.9287280
   4.3158640   7.1350430  75.9094070   8.7963840   9.4019030  81.9011980
   8.1127360  10.0718140  81.8928650   9.3358130   9.5999680  81.1356840
   6.3322580  11.2463160  80.6157160   6.3449740  10.8425450  79.7479420
   5.7797800  12.0210450  80.5118590   7.6268000   7.9679380  75.7047330
   7.5164330   7.0253710  75.8296750   7.6236250   8.3295020  76.5910090
   3.1688280   3.5944700  75.0609820   2.2417560   3.5282080  75.2898290
   3.3213100   4.5324830  74.9465060   9.6770120   4.5480220  82.0356010
   8.8488750   4.6173310  81.5606140  10.2720600   5.1334530  81.5671840
   7.1985570   5.1565000  75.5645070   6.5797990   4.8184550  74.9171370
   7.1810020   4.5124760  76.2724260   5.3750270   4.3951810  72.5717820
   5.8143550   3.5574240  72.4255640   6.0878690   5.0281210  72.6581960
   3.4845650   9.3347880  76.5399060   3.9241560  10.0772210  76.1254450
   3.4232540   9.5774450  77.4638020   6.1515830  12.3217000  73.8962070
   5.9916970  12.0319940  74.7943900   5.9862540  11.5457130  73.3607300
   5.8541960   9.8304560  72.4560070   5.1607120   9.8281850  71.7962350
   6.5964820   9.4063880  72.0254240   5.4191890  11.4567270  76.5308560
   5.8748840  10.6756650  76.8447180   5.7584410  12.1674090  77.0749740
   4.1545200   2.7155720  81.1785830   3.4226320   3.2242530  81.5275930
   3.7569540   1.8985700  80.8774610   7.9699700   5.6946690  80.0381180
   8.6898820   6.1901980  79.6477290   7.7681520   5.0164580  79.3935050
   8.4172300   2.7716140  71.9452590   8.3336020   3.2030360  71.0949030
   9.1366490   3.2314490  72.3779410   9.4459550   9.6258400  74.6734720
   8.8035710   8.9714020  74.9478440   9.0590210  10.0313490  73.8975390
   5.0246030   6.9543830  78.5206410   5.3769850   6.3571960  77.8607780
   4.1408360   6.6288060  78.6914660   3.9901210   8.2326240  81.4871930
   4.6323440   7.5319400  81.6004100   4.5150560   9.0124680  81.3068820
   7.8356930   8.5174860  71.2111070   7.6094510   7.8005300  71.8035710
   7.4453130   8.2687300  70.3732820   7.4173180   6.4346800  72.8725230
   7.1294880   6.8959490  73.6603110   8.2125350   5.9744570  73.1409450
   2.6201180   9.9901160  71.4654390   2.7213160   9.7865150  70.5356370
   1.7202920   9.7359440  71.6702170   7.2671870   3.4279360  77.7360570
   6.3262010   3.4429590  77.9108260   7.5815940   2.6415320  78.1820870
   9.2697450  10.5988210  79.4114830   9.3944870  11.4219380  79.8838640
  10.1363010  10.3878940  79.0638980   8.9047460  11.0919860  72.3294270
   8.6188970  10.6785000  71.5148450   8.7067010  12.0207570  72.2094790
   3.6097420   6.1473170  71.3741870   3.0607520   6.5942470  72.0184610
   4.2316680   5.6422420  71.8979540   1.7900180   4.1301700  70.5184270
   2.3105840   3.4150720  70.1525420   2.4368580   4.7687570  70.8184780
   2.3548210  12.2113310  72.8086010   3.2499000  12.5498280  72.8304770
   2.3865840  11.4892720  72.1810290  10.5744010   8.4834800  70.8521920
   9.7436970   8.5511450  71.3229150  10.7515840   9.3738920  70.5488780
  10.0300470   5.2282280  73.3556120  10.7919380   5.7978930  73.4615810
  10.0454840   4.6609480  74.1264430  11.0360440   6.0832380  78.1998050
  11.4069270   5.2999700  77.7934020  11.6762370   6.7721480  78.0215350
  10.0819640   5.5216650  70.5128640  10.3568480   6.4295530  70.3847860
   9.8930380   5.4579180  71.4490630   9.9784980   3.4585640  75.5058070
   9.6028580   2.6913570  75.0739360   9.2488100   3.8408340  75.9933000
   8.0770250  12.2187560  77.1396640   8.6729320  11.8972130  76.4631060
   8.3348400  11.7459380  77.9309910   8.6282460  12.8682860  80.9694370
   8.1685430  13.6198670  80.5952390   7.9994920  12.1489330  80.9109170
   1.7973680  12.0679590  80.9711480   2.0851490  11.8133890  80.0944490
   2.3096900  11.5156950  81.5617050  10.0991100  12.5321260  75.3353930
  10.2743290  11.8459000  74.6914850   9.4012670  13.0568310  74.9430600
   4.5583260   3.0886490  59.0436770   4.4777310   2.1741100  58.7728480
   4.1447680   3.5853560  58.3376480   2.6901300   4.8665510  60.9246040
   1.9143400   4.3865950  61.2144610   3.3414230   4.1871160  60.7502200
   6.7108730   9.2725700  59.7045170   6.2490260   8.5012940  60.0332340
   7.5234280   9.2991770  60.2097620   2.9372040  11.5583710  59.3249160
   2.3183480  12.0141210  58.7543600   3.7923820  11.7135170  58.9238860
   2.1310290   7.5422700  60.9316200   2.0618570   6.6012640  60.7705330
   2.8930150   7.6324110  61.5038770   3.8035390   6.4422950  56.7181070
   3.1852660   6.9072400  56.1543790   4.3158640   7.1350430  57.1350580
   8.7963840   9.4019030  63.1268490   8.1127360  10.0718140  63.1185160
   9.3358130   9.5999680  62.3613350   6.3322580  11.2463160  61.8413670
   6.3449740  10.8425450  60.9735930   5.7797800  12.0210450  61.7375100
   7.6268000   7.9679380  56.9303840   7.5164330   7.0253710  57.0553260
   7.6236250   8.3295020  57.8166600   5.7308020   6.1493000  63.1696280
   6.1476810   5.9353110  62.3349740   6.4547840   6.4065790  63.7404900
   3.1688280   3.5944700  56.2866330   2.2417560   3.5282080  56.5154800
   3.3213100   4.5324830  56.1721570   9.6770120   4.5480220  63.2612520
   8.8488750   4.6173310  62.7862650  10.2720600   5.1334530  62.7928350
   7.1985570   5.1565000  56.7901580   6.5797990   4.8184550  56.1427880
   7.1810020   4.5124760  57.4980770   7.3312230  11.3808870  64.8948370
   6.8542790  12.1881060  64.7020980   6.6474020  10.7287200  65.0474580
   5.3750270   4.3951810  53.7974330   5.8143550   3.5574240  53.6512150
   6.0878690   5.0281210  53.8838470   3.4845650   9.3347880  57.7655570
   3.9241560  10.0772210  57.3510960   3.4232540   9.5774450  58.6894530
  10.9111440  11.1420810  69.9639760  11.3871160  11.6203700  70.6428840
  11.5318600  11.0738300  69.2385260  10.3144690   8.3333660  67.1239770
  10.4407750   8.0945540  66.2056950  10.3566070   7.5018200  67.5961850
   4.1761430  12.0361660  65.6934580   4.6906100  11.9469670  66.4957010
   3.3330510  12.3821360  65.9862490   6.1515830  12.3217000  55.1218580
   5.9916970  12.0319940  56.0200410   5.9862540  11.5457130  54.5863810
   5.8541960   9.8304560  53.6816580   5.1607120   9.8281850  53.0218860
   6.5964820   9.4063880  53.2510750   5.4191890  11.4567270  57.7565070
   5.8748840  10.6756650  58.0703690   5.7584410  12.1674090  58.3006250
   4.1545200   2.7155720  62.4042340   3.4226320   3.2242530  62.7532440
   3.7569540   1.8985700  62.1031120   7.9699700   5.6946690  61.2637690
   8.6898820   6.1901980  60.8733800   7.7681520   5.0164580  60.6191560
   3.3518500   5.7655750  67.1506690   3.2855810   4.8451420  66.8964280
   2.7223640   5.8631190  67.8651330   3.2835230   8.5876320  66.9010490
   3.2979770   7.6557280  66.6829400   2.5760330   8.6736080  67.5400260
   8.4172300   2.7716140  53.1709100   8.3336020   3.2030360  52.3205540
   9.1366490   3.2314490  53.6035920   9.4946440   5.2283660  66.2479070
   8.7694630   5.8212440  66.0508460  10.0221900   5.2207200  65.4492440
   9.4459550   9.6258400  55.8991230   8.8035710   8.9714020  56.1734950
   9.0590210  10.0313490  55.1231900   5.0246030   6.9543830  59.7462920
   5.3769850   6.3571960  59.0864290   4.1408360   6.6288060  59.9171170
   2.7169130  10.2293890  63.9950990   3.3611350  10.4353270  64.6724410
   3.0798570   9.4682290  63.5421840   3.9901210   8.2326240  62.7128440
   4.6323440   7.5319400  62.8260610   4.5150560   9.0124680  62.5325330
   7.8356930   8.5174860  52.4367580   7.6094510   7.8005300  53.0292220
   7.4453130   8.2687300  51.5989330   5.7638830   9.0321140  65.9164500
   6.0995070   9.6187830  66.5942420   4.8439170   8.9013850  66.1462290
   7.4173180   6.4346800  54.0981740   7.1294880   6.8959490  54.8859620
   8.2125350   5.9744570  54.3665960   2.6201180   9.9901160  52.6910900
   2.7213160   9.7865150  51.7612880   1.7202920   9.7359440  52.8958680
   7.2671870   3.4279360  58.9617080   6.3262010   3.4429590  59.1364770
   7.5815940   2.6415320  59.4077380   9.2697450  10.5988210  60.6371340
   9.3944870  11.4219380  61.1095150  10.1363010  10.3878940  60.2895490
   4.5837890   7.9845360  69.4449460   3.9776050   8.0076960  68.7045210
   4.2792000   7.2528400  69.9816710   6.0138260  11.7125650  68.0558870
   6.9660010  11.6283670  68.0059110   5.8666480  12.3767360  68.7292660
   8.9047460  11.0919860  53.5550780   8.6188970  10.6785000  52.7404960
   8.7067010  12.0207570  53.4351300   3.6097420   6.1473170  52.5998380
   3.0607520   6.5942470  53.2441120   4.2316680   5.6422420  53.1236050
   7.6632360   7.5015270  68.5320640   8.4041830   7.8391030  68.0288100
   6.9005040   7.6707330  67.9790410   1.7900180   4.1301700  51.7440780
   2.3105840   3.4150720  51.3781930   2.4368580   4.7687570  52.0441290
   6.3378020   5.5530100  67.0675850   6.7519040   5.7075180  67.9166270
   5.4029020   5.6785320  67.2301630   6.8100190   2.8926260  69.0715000
   7.3920960   2.1378580  68.9835480   6.9861960   3.4233700  68.2946480
   3.4357150   3.2366760  66.4209620   3.5553360   2.6407900  67.1604460
   4.2951150   3.2736450  66.0010920   5.7745050   3.7903950  64.9972130
   5.2480270   4.3146570  64.3937270   6.1176390   4.4231340  65.6281860
   2.3548210  12.2113310  54.0342520   3.2499000  12.5498280  54.0561280
   2.3865840  11.4892720  53.4066800   9.3342560  10.7416980  66.7408720
   8.7344550  10.8009540  65.9972640   9.4636460   9.8021960  66.8705570
  10.5744010   8.4834800  52.0778430   9.7436970   8.5511450  52.5485660
  10.7515840   9.3738920  51.7745290  10.0300470   5.2282280  54.5812630
  10.7919380   5.7978930  54.6872320  10.0454840   4.6609480  55.3520940
  11.0360440   6.0832380  59.4254560  11.4069270   5.2999700  59.0190530
  11.6762370   6.7721480  59.2471860   8.0194200   7.4668960  64.8384880
   7.2054040   7.8966120  65.1010670   8.4268400   8.0787370  64.2253930
  10.0819640   5.5216650  51.7385150  10.3568480   6.4295530  51.6104370
   9.8930380   5.4579180  52.6747140   9.9784980   3.4585640  56.7314580
   9.6028580   2.6913570  56.2995870   9.2488100   3.8408340  57.2189510
   9.3684600   2.6057160  66.3654100   9.1370690   2.3769910  65.4652050
   9.6289150   3.5256710  66.3198990   9.4325660   1.7683000  63.5541370
   8.4828370   1.7346540  63.6686360   9.6138670   2.6783110  63.3191140
   8.0770250  12.2187560  58.3653150   8.6729320  11.8972130  57.6887570
   8.3348400  11.7459380  59.1566420  10.9443010  12.2259440  64.9164140
  10.4501290  12.6228310  64.1991270  10.3356300  11.6008650  65.3101420
   8.6282460  12.8682860  62.1950880   8.1685430  13.6198670  61.8208900
   7.9994920  12.1489330  62.1365680   1.7973680  12.0679590  62.1967990
   2.0851490  11.8133890  61.3201000   2.3096900  11.5156950  62.7873560
   1.8646040  12.9895690  69.5636190   2.7913350  12.7539960  69.6072150
   1.8496470  13.8167690  69.0822220  10.0991100  12.5321260  56.5610440
  10.2743290  11.8459000  55.9171360   9.4012670  13.0568310  56.1687110
   8.4323600  12.2165550  69.3877230   9.2248920  11.7214780  69.1803190
   8.7256750  12.8955690  69.9952840   4.5583260   3.0886490  40.2693280
   4.4777310   2.1741100  39.9984990   4.1447680   3.5853560  39.5632990
   2.6901300   4.8665510  42.1502550   1.9143400   4.3865950  42.4401120
   3.3414230   4.1871160  41.9758710   6.7108730   9.2725700  40.9301680
   6.2490260   8.5012940  41.2588850   7.5234280   9.2991770  41.4354130
   2.9372040  11.5583710  40.5505670   2.3183480  12.0141210  39.9800110
   3.7923820  11.7135170  40.1495370   2.1310290   7.5422700  42.1572710
   2.0618570   6.6012640  41.9961840   2.8930150   7.6324110  42.7295280
   3.8035390   6.4422950  37.9437580   3.1852660   6.9072400  37.3800300
   4.3158640   7.1350430  38.3607090   8.7963840   9.4019030  44.3525000
   8.1127360  10.0718140  44.3441670   9.3358130   9.5999680  43.5869860
   6.3322580  11.2463160  43.0670180   6.3449740  10.8425450  42.1992440
   5.7797800  12.0210450  42.9631610   7.6268000   7.9679380  38.1560350
   7.5164330   7.0253710  38.2809770   7.6236250   8.3295020  39.0423110
   5.7308020   6.1493000  44.3952790   6.1476810   5.9353110  43.5606250
   6.4547840   6.4065790  44.9661410   3.1688280   3.5944700  37.5122840
   2.2417560   3.5282080  37.7411310   3.3213100   4.5324830  37.3978080
   9.6770120   4.5480220  44.4869030   8.8488750   4.6173310  44.0119160
  10.2720600   5.1334530  44.0184860   7.1985570   5.1565000  38.0158090
   6.5797990   4.8184550  37.3684390   7.1810020   4.5124760  38.7237280
   7.3312230  11.3808870  46.1204880   6.8542790  12.1881060  45.9277490
   6.6474020  10.7287200  46.2731090   5.3750270   4.3951810  35.0230840
   5.8143550   3.5574240  34.8768660   6.0878690   5.0281210  35.1094980
   3.4845650   9.3347880  38.9912080   3.9241560  10.0772210  38.5767470
   3.4232540   9.5774450  39.9151040  10.9111440  11.1420810  51.1896270
  11.3871160  11.6203700  51.8685350  11.5318600  11.0738300  50.4641770
  10.3144690   8.3333660  48.3496280  10.4407750   8.0945540  47.4313460
  10.3566070   7.5018200  48.8218360   4.1761430  12.0361660  46.9191090
   4.6906100  11.9469670  47.7213520   3.3330510  12.3821360  47.2119000
   6.1515830  12.3217000  36.3475090   5.9916970  12.0319940  37.2456920
   5.9862540  11.5457130  35.8120320   5.8541960   9.8304560  34.9073090
   5.1607120   9.8281850  34.2475370   6.5964820   9.4063880  34.4767260
   5.4191890  11.4567270  38.9821580   5.8748840  10.6756650  39.2960200
   5.7584410  12.1674090  39.5262760   4.1545200   2.7155720  43.6298850
   3.4226320   3.2242530  43.9788950   3.7569540   1.8985700  43.3287630
   7.9699700   5.6946690  42.4894200   8.6898820   6.1901980  42.0990310
   7.7681520   5.0164580  41.8448070   3.3518500   5.7655750  48.3763200
   3.2855810   4.8451420  48.1220790   2.7223640   5.8631190  49.0907840
   3.2835230   8.5876320  48.1267000   3.2979770   7.6557280  47.9085910
   2.5760330   8.6736080  48.7656770   8.4172300   2.7716140  34.3965610
   8.3336020   3.2030360  33.5462050   9.1366490   3.2314490  34.8292430
   9.4946440   5.2283660  47.4735580   8.7694630   5.8212440  47.2764970
  10.0221900   5.2207200  46.6748950   9.4459550   9.6258400  37.1247740
   8.8035710   8.9714020  37.3991460   9.0590210  10.0313490  36.3488410
   5.0246030   6.9543830  40.9719430   5.3769850   6.3571960  40.3120800
   4.1408360   6.6288060  41.1427680   2.7169130  10.2293890  45.2207500
   3.3611350  10.4353270  45.8980920   3.0798570   9.4682290  44.7678350
   3.9901210   8.2326240  43.9384950   4.6323440   7.5319400  44.0517120
   4.5150560   9.0124680  43.7581840   7.8356930   8.5174860  33.6624090
   7.6094510   7.8005300  34.2548730   7.4453130   8.2687300  32.8245840
   5.7638830   9.0321140  47.1421010   6.0995070   9.6187830  47.8198930
   4.8439170   8.9013850  47.3718800   7.4173180   6.4346800  35.3238250
   7.1294880   6.8959490  36.1116130   8.2125350   5.9744570  35.5922470
   2.6201180   9.9901160  33.9167410   2.7213160   9.7865150  32.9869390
   1.7202920   9.7359440  34.1215190   7.2671870   3.4279360  40.1873590
   6.3262010   3.4429590  40.3621280   7.5815940   2.6415320  40.6333890
   9.2697450  10.5988210  41.8627850   9.3944870  11.4219380  42.3351660
  10.1363010  10.3878940  41.5152000   4.5837890   7.9845360  50.6705970
   3.9776050   8.0076960  49.9301720   4.2792000   7.2528400  51.2073220
   6.0138260  11.7125650  49.2815380   6.9660010  11.6283670  49.2315620
   5.8666480  12.3767360  49.9549170   8.9047460  11.0919860  34.7807290
   8.6188970  10.6785000  33.9661470   8.7067010  12.0207570  34.6607810
   3.6097420   6.1473170  33.8254890   3.0607520   6.5942470  34.4697630
   4.2316680   5.6422420  34.3492560   7.6632360   7.5015270  49.7577150
   8.4041830   7.8391030  49.2544610   6.9005040   7.6707330  49.2046920
   1.7900180   4.1301700  32.9697290   2.3105840   3.4150720  32.6038440
   2.4368580   4.7687570  33.2697800   6.3378020   5.5530100  48.2932360
   6.7519040   5.7075180  49.1422780   5.4029020   5.6785320  48.4558140
   6.8100190   2.8926260  50.2971510   7.3920960   2.1378580  50.2091990
   6.9861960   3.4233700  49.5202990   3.4357150   3.2366760  47.6466130
   3.5553360   2.6407900  48.3860970   4.2951150   3.2736450  47.2267430
   5.7745050   3.7903950  46.2228640   5.2480270   4.3146570  45.6193780
   6.1176390   4.4231340  46.8538370   2.3548210  12.2113310  35.2599030
   3.2499000  12.5498280  35.2817790   2.3865840  11.4892720  34.6323310
   9.3342560  10.7416980  47.9665230   8.7344550  10.8009540  47.2229150
   9.4636460   9.8021960  48.0962080  10.5744010   8.4834800  33.3034940
   9.7436970   8.5511450  33.7742170  10.7515840   9.3738920  33.0001800
  10.0300470   5.2282280  35.8069140  10.7919380   5.7978930  35.9128830
  10.0454840   4.6609480  36.5777450  11.0360440   6.0832380  40.6511070
  11.4069270   5.2999700  40.2447040  11.6762370   6.7721480  40.4728370
   8.0194200   7.4668960  46.0641390   7.2054040   7.8966120  46.3267180
   8.4268400   8.0787370  45.4510440  10.0819640   5.5216650  32.9641660
  10.3568480   6.4295530  32.8360880   9.8930380   5.4579180  33.9003650
   9.9784980   3.4585640  37.9571090   9.6028580   2.6913570  37.5252380
   9.2488100   3.8408340  38.4446020   9.3684600   2.6057160  47.5910610
   9.1370690   2.3769910  46.6908560   9.6289150   3.5256710  47.5455500
   9.4325660   1.7683000  44.7797880   8.4828370   1.7346540  44.8942870
   9.6138670   2.6783110  44.5447650   8.0770250  12.2187560  39.5909660
   8.6729320  11.8972130  38.9144080   8.3348400  11.7459380  40.3822930
  10.9443010  12.2259440  46.1420650  10.4501290  12.6228310  45.4247780
  10.3356300  11.6008650  46.5357930   8.6282460  12.8682860  43.4207390
   8.1685430  13.6198670  43.0465410   7.9994920  12.1489330  43.3622190
   1.7973680  12.0679590  43.4224500   2.0851490  11.8133890  42.5457510
   2.3096900  11.5156950  44.0130070   1.8646040  12.9895690  50.7892700
   2.7913350  12.7539960  50.8328660   1.8496470  13.8167690  50.3078730
  10.0991100  12.5321260  37.7866950  10.2743290  11.8459000  37.1427870
   9.4012670  13.0568310  37.3943620   8.4323600  12.2165550  50.6133740
   9.2248920  11.7214780  50.4059700   8.7256750  12.8955690  51.2209350
   4.5583260   3.0886490  21.4949790   4.4777310   2.1741100  21.2241500
   4.1447680   3.5853560  20.7889500   2.6901300   4.8665510  23.3759060
   1.9143400   4.3865950  23.6657630   3.3414230   4.1871160  23.2015220
   6.7108730   9.2725700  22.1558190   6.2490260   8.5012940  22.4845360
   7.5234280   9.2991770  22.6610640   2.9372040  11.5583710  21.7762180
   2.3183480  12.0141210  21.2056620   3.7923820  11.7135170  21.3751880
   2.1310290   7.5422700  23.3829220   2.0618570   6.6012640  23.2218350
   2.8930150   7.6324110  23.9551790   3.8035390   6.4422950  19.1694090
   3.1852660   6.9072400  18.6056810   4.3158640   7.1350430  19.5863600
   8.7963840   9.4019030  25.5781510   8.1127360  10.0718140  25.5698180
   9.3358130   9.5999680  24.8126370   6.3322580  11.2463160  24.2926690
   6.3449740  10.8425450  23.4248950   5.7797800  12.0210450  24.1888120
   7.6268000   7.9679380  19.3816860   7.5164330   7.0253710  19.5066280
   7.6236250   8.3295020  20.2679620   5.7308020   6.1493000  25.6209300
   6.1476810   5.9353110  24.7862760   6.4547840   6.4065790  26.1917920
   3.1688280   3.5944700  18.7379350   2.2417560   3.5282080  18.9667820
   3.3213100   4.5324830  18.6234590   9.6770120   4.5480220  25.7125540
   8.8488750   4.6173310  25.2375670  10.2720600   5.1334530  25.2441370
   7.1985570   5.1565000  19.2414600   6.5797990   4.8184550  18.5940900
   7.1810020   4.5124760  19.9493790   7.3312230  11.3808870  27.3461390
   6.8542790  12.1881060  27.1534000   6.6474020  10.7287200  27.4987600
   5.3750270   4.3951810  16.2487350   5.8143550   3.5574240  16.1025170
   6.0878690   5.0281210  16.3351490   3.4845650   9.3347880  20.2168590
   3.9241560  10.0772210  19.8023980   3.4232540   9.5774450  21.1407550
  10.9111440  11.1420810  32.4152780  11.3871160  11.6203700  33.0941860
  11.5318600  11.0738300  31.6898280  10.3144690   8.3333660  29.5752790
  10.4407750   8.0945540  28.6569970  10.3566070   7.5018200  30.0474870
   4.1761430  12.0361660  28.1447600   4.6906100  11.9469670  28.9470030
   3.3330510  12.3821360  28.4375510   6.1515830  12.3217000  17.5731600
   5.9916970  12.0319940  18.4713430   5.9862540  11.5457130  17.0376830
   5.8541960   9.8304560  16.1329600   5.1607120   9.8281850  15.4731880
   6.5964820   9.4063880  15.7023770   5.4191890  11.4567270  20.2078090
   5.8748840  10.6756650  20.5216710   5.7584410  12.1674090  20.7519270
   4.1545200   2.7155720  24.8555360   3.4226320   3.2242530  25.2045460
   3.7569540   1.8985700  24.5544140   7.9699700   5.6946690  23.7150710
   8.6898820   6.1901980  23.3246820   7.7681520   5.0164580  23.0704580
   3.3518500   5.7655750  29.6019710   3.2855810   4.8451420  29.3477300
   2.7223640   5.8631190  30.3164350   3.2835230   8.5876320  29.3523510
   3.2979770   7.6557280  29.1342420   2.5760330   8.6736080  29.9913280
   8.4172300   2.7716140  15.6222120   8.3336020   3.2030360  14.7718560
   9.1366490   3.2314490  16.0548940   9.4946440   5.2283660  28.6992090
   8.7694630   5.8212440  28.5021480  10.0221900   5.2207200  27.9005460
   9.4459550   9.6258400  18.3504250   8.8035710   8.9714020  18.6247970
   9.0590210  10.0313490  17.5744920   5.0246030   6.9543830  22.1975940
   5.3769850   6.3571960  21.5377310   4.1408360   6.6288060  22.3684190
   2.7169130  10.2293890  26.4464010   3.3611350  10.4353270  27.1237430
   3.0798570   9.4682290  25.9934860   3.9901210   8.2326240  25.1641460
   4.6323440   7.5319400  25.2773630   4.5150560   9.0124680  24.9838350
   7.8356930   8.5174860  14.8880600   7.6094510   7.8005300  15.4805240
   7.4453130   8.2687300  14.0502350   5.7638830   9.0321140  28.3677520
   6.0995070   9.6187830  29.0455440   4.8439170   8.9013850  28.5975310
   7.4173180   6.4346800  16.5494760   7.1294880   6.8959490  17.3372640
   8.2125350   5.9744570  16.8178980   2.6201180   9.9901160  15.1423920
   2.7213160   9.7865150  14.2125900   1.7202920   9.7359440  15.3471700
   7.2671870   3.4279360  21.4130100   6.3262010   3.4429590  21.5877790
   7.5815940   2.6415320  21.8590400   9.2697450  10.5988210  23.0884360
   9.3944870  11.4219380  23.5608170  10.1363010  10.3878940  22.7408510
   4.5837890   7.9845360  31.8962480   3.9776050   8.0076960  31.1558230
   4.2792000   7.2528400  32.4329730   6.0138260  11.7125650  30.5071890
   6.9660010  11.6283670  30.4572130   5.8666480  12.3767360  31.1805680
   8.9047460  11.0919860  16.0063800   8.6188970  10.6785000  15.1917980
   8.7067010  12.0207570  15.8864320   3.6097420   6.1473170  15.0511400
   3.0607520   6.5942470  15.6954140   4.2316680   5.6422420  15.5749070
   7.6632360   7.5015270  30.9833660   8.4041830   7.8391030  30.4801120
   6.9005040   7.6707330  30.4303430   1.7900180   4.1301700  14.1953800
   2.3105840   3.4150720  13.8294950   2.4368580   4.7687570  14.4954310
   6.3378020   5.5530100  29.5188870   6.7519040   5.7075180  30.3679290
   5.4029020   5.6785320  29.6814650   6.8100190   2.8926260  31.5228020
   7.3920960   2.1378580  31.4348500   6.9861960   3.4233700  30.7459500
   3.4357150   3.2366760  28.8722640   3.5553360   2.6407900  29.6117480
   4.2951150   3.2736450  28.4523940   5.7745050   3.7903950  27.4485150
   5.2480270   4.3146570  26.8450290   6.1176390   4.4231340  28.0794880
   2.3548210  12.2113310  16.4855540   3.2499000  12.5498280  16.5074300
   2.3865840  11.4892720  15.8579820   9.3342560  10.7416980  29.1921740
   8.7344550  10.8009540  28.4485660   9.4636460   9.8021960  29.3218590
  10.5744010   8.4834800  14.5291450   9.7436970   8.5511450  14.9998680
  10.7515840   9.3738920  14.2258310  10.0300470   5.2282280  17.0325650
  10.7919380   5.7978930  17.1385340  10.0454840   4.6609480  17.8033960
  11.0360440   6.0832380  21.8767580  11.4069270   5.2999700  21.4703550
  11.6762370   6.7721480  21.6984880   8.0194200   7.4668960  27.2897900
   7.2054040   7.8966120  27.5523690   8.4268400   8.0787370  26.6766950
  10.0819640   5.5216650  14.1898170  10.3568480   6.4295530  14.0617390
   9.8930380   5.4579180  15.1260160   9.9784980   3.4585640  19.1827600
   9.6028580   2.6913570  18.7508890   9.2488100   3.8408340  19.6702530
   9.3684600   2.6057160  28.8167120   9.1370690   2.3769910  27.9165070
   9.6289150   3.5256710  28.7712010   9.4325660   1.7683000  26.0054390
   8.4828370   1.7346540  26.1199380   9.6138670   2.6783110  25.7704160
   8.0770250  12.2187560  20.8166170   8.6729320  11.8972130  20.1400590
   8.3348400  11.7459380  21.6079440  10.9443010  12.2259440  27.3677160
  10.4501290  12.6228310  26.6504290  10.3356300  11.6008650  27.7614440
   8.6282460  12.8682860  24.6463900   8.1685430  13.6198670  24.2721920
   7.9994920  12.1489330  24.5878700   1.7973680  12.0679590  24.6481010
   2.0851490  11.8133890  23.7714020   2.3096900  11.5156950  25.2386580
   1.8646040  12.9895690  32.0149210   2.7913350  12.7539960  32.0585170
   1.8496470  13.8167690  31.5335240  10.0991100  12.5321260  19.0123460
  10.2743290  11.8459000  18.3684380   9.4012670  13.0568310  18.6200130
   8.4323600  12.2165550  31.8390250   9.2248920  11.7214780  31.6316210
   8.7256750  12.8955690  32.4465860   4.5583260   3.0886490   2.7206300
   4.4777310   2.1741100   2.4498010   4.1447680   3.5853560   2.0146010
   2.6901300   4.8665510   4.6015570   1.9143400   4.3865950   4.8914140
   3.3414230   4.1871160   4.4271730   6.7108730   9.2725700   3.3814700
   6.2490260   8.5012940   3.7101870   7.5234280   9.2991770   3.8867150
   2.9372040  11.5583710   3.0018690   2.3183480  12.0141210   2.4313130
   3.7923820  11.7135170   2.6008390   2.1310290   7.5422700   4.6085730
   2.0618570   6.6012640   4.4474860   2.8930150   7.6324110   5.1808300
   8.7963840   9.4019030   6.8038020   8.1127360  10.0718140   6.7954690
   9.3358130   9.5999680   6.0382880   6.3322580  11.2463160   5.5183200
   6.3449740  10.8425450   4.6505460   5.7797800  12.0210450   5.4144630
   5.7308020   6.1493000   6.8465810   6.1476810   5.9353110   6.0119270
   6.4547840   6.4065790   7.4174430   9.6770120   4.5480220   6.9382050
   8.8488750   4.6173310   6.4632180  10.2720600   5.1334530   6.4697880
   7.3312230  11.3808870   8.5717900   6.8542790  12.1881060   8.3790510
   6.6474020  10.7287200   8.7244110  10.9111440  11.1420810  13.6409290
  11.3871160  11.6203700  14.3198370  11.5318600  11.0738300  12.9154790
  10.3144690   8.3333660  10.8009300  10.4407750   8.0945540   9.8826480
  10.3566070   7.5018200  11.2731380   4.1761430  12.0361660   9.3704110
   4.6906100  11.9469670  10.1726540   3.3330510  12.3821360   9.6632020
   4.1545200   2.7155720   6.0811870   3.4226320   3.2242530   6.4301970
   3.7569540   1.8985700   5.7800650   7.9699700   5.6946690   4.9407220
   8.6898820   6.1901980   4.5503330   7.7681520   5.0164580   4.2961090
   3.3518500   5.7655750  10.8276220   3.2855810   4.8451420  10.5733810
   2.7223640   5.8631190  11.5420860   3.2835230   8.5876320  10.5780020
   3.2979770   7.6557280  10.3598930   2.5760330   8.6736080  11.2169790
   9.4946440   5.2283660   9.9248600   8.7694630   5.8212440   9.7277990
  10.0221900   5.2207200   9.1261970   5.0246030   6.9543830   3.4232450
   5.3769850   6.3571960   2.7633820   4.1408360   6.6288060   3.5940700
   2.7169130  10.2293890   7.6720520   3.3611350  10.4353270   8.3493940
   3.0798570   9.4682290   7.2191370   3.9901210   8.2326240   6.3897970
   4.6323440   7.5319400   6.5030140   4.5150560   9.0124680   6.2094860
   5.7638830   9.0321140   9.5934030   6.0995070   9.6187830  10.2711950
   4.8439170   8.9013850   9.8231820   7.2671870   3.4279360   2.6386610
   6.3262010   3.4429590   2.8134300   7.5815940   2.6415320   3.0846910
   9.2697450  10.5988210   4.3140870   9.3944870  11.4219380   4.7864680
  10.1363010  10.3878940   3.9665020   4.5837890   7.9845360  13.1218990
   3.9776050   8.0076960  12.3814740   4.2792000   7.2528400  13.6586240
   6.0138260  11.7125650  11.7328400   6.9660010  11.6283670  11.6828640
   5.8666480  12.3767360  12.4062190   7.6632360   7.5015270  12.2090170
   8.4041830   7.8391030  11.7057630   6.9005040   7.6707330  11.6559940
   6.3378020   5.5530100  10.7445380   6.7519040   5.7075180  11.5935800
   5.4029020   5.6785320  10.9071160   6.8100190   2.8926260  12.7484530
   7.3920960   2.1378580  12.6605010   6.9861960   3.4233700  11.9716010
   3.4357150   3.2366760  10.0979150   3.5553360   2.6407900  10.8373990
   4.2951150   3.2736450   9.6780450   5.7745050   3.7903950   8.6741660
   5.2480270   4.3146570   8.0706800   6.1176390   4.4231340   9.3051390
   9.3342560  10.7416980  10.4178250   8.7344550  10.8009540   9.6742170
   9.4636460   9.8021960  10.5475100  11.0360440   6.0832380   3.1024090
  11.4069270   5.2999700   2.6960060  11.6762370   6.7721480   2.9241390
   8.0194200   7.4668960   8.5154410   7.2054040   7.8966120   8.7780200
   8.4268400   8.0787370   7.9023460   9.3684600   2.6057160  10.0423630
   9.1370690   2.3769910   9.1421580   9.6289150   3.5256710   9.9968520
   9.4325660   1.7683000   7.2310900   8.4828370   1.7346540   7.3455890
   9.6138670   2.6783110   6.9960670  10.9443010  12.2259440   8.5933670
  10.4501290  12.6228310   7.8760800  10.3356300  11.6008650   8.9870950
   8.6282460  12.8682860   5.8720410   8.1685430  13.6198670   5.4978430
   7.9994920  12.1489330   5.8135210   1.7973680  12.0679590   5.8737520
   2.0851490  11.8133890   4.9970530   2.3096900  11.5156950   6.4643090
   1.8646040  12.9895690  13.2405720   2.7913350  12.7539960  13.2841680
   1.8496470  13.8167690  12.7591750   8.4323600  12.2165550  13.0646760
   9.2248920  11.7214780  12.8572720   8.7256750  12.8955690  13.6722370
  78.6719840  82.6312710  83.8039010  90.0000000  90.0000000  90.0000000
