%VERSION  VERSION_STAMP = V0001.000  DATE = 05/23/26 10:44:29                  
%FLAG TITLE                                                                     
%FORMAT(20a4)                                                                   
default_name                                                                    
%FLAG POINTERS                                                                  
%FORMAT(10I8)                                                                   
      49       9      20      32      44      46      83      85       0       0
     254       1      32      46      85      15      31      28      47       0
       0       0       0       0       0       0       0       0      49       0
       0
%FLAG ATOM_NAME                                                                 
%FORMAT(20a4)                                                                   
C21 H18 H19 H20 C20 H16 H17 O6  C17 O3  C14 C15 C16 H11 H10 C13 H9  C12 H8  C11 
N2  H7  C10 O2  C9  H5  H6  N1  C7  O1  C4  C3  H3  C2  H2  C1  H1  C6  H4  C5  
C8  O4  C18 H12 H13 C19 H14 H15 O5  
%FLAG CHARGE                                                                    
%FORMAT(5E16.8)                                                                 
 -7.10859212E+00  1.88642716E+00  1.88642716E+00  1.88642716E+00  8.32172352E+00
 -6.28851573E-01 -6.28851573E-01 -9.55019810E+00  1.57017915E+01 -1.08387334E+01
 -3.65546627E+00 -1.63054963E+00 -6.29950378E+00  3.92118385E+00  2.91201465E+00
 -1.63054963E+00  2.91201465E+00 -6.29950378E+00  3.92118385E+00  8.68737219E+00
 -1.27657416E+01  5.76808684E+00  1.52230734E+01 -1.06776847E+01 -6.93094292E+00
  3.10108924E+00  3.10108924E+00 -2.40847784E+00  8.06795977E+00 -8.97577653E+00
  2.91897557E+00 -3.68161527E+00  2.74467927E+00 -1.67058402E+00  2.68758880E+00
 -3.43876668E+00  2.48692484E+00 -1.52775763E+00  3.16630685E+00 -3.94631240E+00
  1.12417924E+01 -8.61821856E+00  2.60300089E+00  9.45190701E-01  9.45190701E-01
  2.60300089E+00  9.45190701E-01  9.45190701E-01 -8.61821856E+00
%FLAG ATOMIC_NUMBER                                                             
%FORMAT(10I8)                                                                   
       6       1       1       1       6       1       1       8       6       8
       6       6       6       1       1       6       1       6       1       6
       7       1       6       8       6       1       1       7       6       8
       6       6       1       6       1       6       1       6       1       6
       6       8       6       1       1       6       1       1       8
%FLAG MASS                                                                      
%FORMAT(5E16.8)                                                                 
  1.20100000E+01  1.00800000E+00  1.00800000E+00  1.00800000E+00  1.20100000E+01
  1.00800000E+00  1.00800000E+00  1.60000000E+01  1.20100000E+01  1.60000000E+01
  1.20100000E+01  1.20100000E+01  1.20100000E+01  1.00800000E+00  1.00800000E+00
  1.20100000E+01  1.00800000E+00  1.20100000E+01  1.00800000E+00  1.20100000E+01
  1.40100000E+01  1.00800000E+00  1.20100000E+01  1.60000000E+01  1.20100000E+01
  1.00800000E+00  1.00800000E+00  1.40100000E+01  1.20100000E+01  1.60000000E+01
  1.20100000E+01  1.20100000E+01  1.00800000E+00  1.20100000E+01  1.00800000E+00
  1.20100000E+01  1.00800000E+00  1.20100000E+01  1.00800000E+00  1.20100000E+01
  1.20100000E+01  1.60000000E+01  1.20100000E+01  1.00800000E+00  1.00800000E+00
  1.20100000E+01  1.00800000E+00  1.00800000E+00  1.60000000E+01
%FLAG ATOM_TYPE_INDEX                                                           
%FORMAT(10I8)                                                                   
       1       2       2       2       1       3       3       4       5       6
       5       5       5       7       7       5       7       5       7       5
       8       9       5       6       1       3       3       8       5       6
       5       5       7       5       7       5       7       5       7       5
       1       4       1       3       3       1       3       3       4
%FLAG NUMBER_EXCLUDED_ATOMS                                                     
%FORMAT(10I8)                                                                   
       8       6       5       4       6       3       2       5       8       3
       9       8       9       4       2       5       3       5       2       5
       7       3       7       4       9       4       3      11      10       5
      11       8       4       6       3       5       3       5       2       5
       8       7       6       5       4       3       2       1       1
%FLAG NONBONDED_PARM_INDEX                                                      
%FORMAT(10I8)                                                                   
       1       2       4       7      11      16      22      29      37       2
       3       5       8      12      17      23      30      38       4       5
       6       9      13      18      24      31      39       7       8       9
      10      14      19      25      32      40      11      12      13      14
      15      20      26      33      41      16      17      18      19      20
      21      27      34      42      22      23      24      25      26      27
      28      35      43      29      30      31      32      33      34      35
      36      44      37      38      39      40      41      42      43      44
      45
%FLAG RESIDUE_LABEL                                                             
%FORMAT(20a4)                                                                   
E01 
%FLAG RESIDUE_POINTER                                                           
%FORMAT(10I8)                                                                   
       1
%FLAG BOND_FORCE_CONSTANT                                                       
%FORMAT(5E16.8)                                                                 
  3.00900000E+02  3.08600000E+02  3.90800000E+02  6.37700000E+02  3.45900000E+02
  4.61100000E+02  3.84200000E+02  4.27600000E+02  3.13000000E+02  3.28700000E+02
  3.21000000E+02  3.30600000E+02  3.30600000E+02  3.45800000E+02  4.03200000E+02
%FLAG BOND_EQUIL_VALUE                                                          
%FORMAT(5E16.8)                                                                 
  1.53800000E+00  1.43200000E+00  1.35800000E+00  1.21800000E+00  1.49100000E+00
  1.39800000E+00  1.41200000E+00  1.37900000E+00  1.52400000E+00  1.46200000E+00
  1.51600000E+00  1.09700000E+00  1.09700000E+00  1.08600000E+00  1.01300000E+00
%FLAG ANGLE_FORCE_CONSTANT                                                      
%FORMAT(5E16.8)                                                                 
  6.80000000E+01  6.33000000E+01  7.53000000E+01  6.93000000E+01  6.87000000E+01
  6.43000000E+01  6.66000000E+01  6.79000000E+01  6.38000000E+01  7.42000000E+01
  6.68000000E+01  6.74000000E+01  6.70000000E+01  6.34000000E+01  6.30000000E+01
  6.37000000E+01  6.35000000E+01  6.83000000E+01  6.80000000E+01  6.27000000E+01
  7.27000000E+01  3.94000000E+01  4.63000000E+01  4.64000000E+01  3.92000000E+01
  5.08000000E+01  4.82000000E+01  4.76000000E+01  4.83000000E+01  4.70000000E+01
  4.98000000E+01
%FLAG ANGLE_EQUIL_VALUE                                                         
%FORMAT(5E16.8)                                                                 
  1.88443280E+00  2.02423373E+00  2.15111922E+00  1.96244905E+00  2.13977458E+00
  2.10015559E+00  2.09474507E+00  2.09771213E+00  2.15914774E+00  2.14762857E+00
  2.01027109E+00  2.15024656E+00  1.90345690E+00  2.10643878E+00  2.09142894E+00
  1.93749083E+00  2.10783504E+00  1.90153704E+00  1.90607489E+00  1.96314718E+00
  1.89001786E+00  1.87762601E+00  1.91637234E+00  1.91218355E+00  1.89298492E+00
  1.91602327E+00  2.09230160E+00  2.02458280E+00  2.05163542E+00  1.88879613E+00
  1.90031530E+00
%FLAG DIHEDRAL_FORCE_CONSTANT                                                   
%FORMAT(5E16.8)                                                                 
  8.00000000E-01  3.83000000E-01  1.40000000E+00  2.70000000E+00  1.00000000E+00
  3.62500000E+00  4.50000000E-01  2.50000000E+00  1.70000000E+00  2.00000000E+00
  0.00000000E+00  8.00000000E-01  8.50000000E-01  0.00000000E+00  1.50000000E+00
  3.83333333E-01  1.00000000E-01  1.35000000E+00  1.00000000E-01  1.17500000E+00
  1.44000000E-01  1.10000000E+00  1.05000000E+01  1.55555556E-01  2.50000000E-01
  0.00000000E+00  2.00000000E+00  8.00000000E-02
%FLAG DIHEDRAL_PERIODICITY                                                      
%FORMAT(5E16.8)                                                                 
  1.00000000E+00  3.00000000E+00  1.00000000E+00  2.00000000E+00  2.00000000E+00
  2.00000000E+00  2.00000000E+00  2.00000000E+00  1.00000000E+00  2.00000000E+00
  2.00000000E+00  1.00000000E+00  2.00000000E+00  2.00000000E+00  1.00000000E+00
  3.00000000E+00  2.00000000E+00  1.00000000E+00  3.00000000E+00  2.00000000E+00
  3.00000000E+00  2.00000000E+00  2.00000000E+00  3.00000000E+00  1.00000000E+00
  3.00000000E+00  1.00000000E+00  3.00000000E+00
%FLAG DIHEDRAL_PHASE                                                            
%FORMAT(5E16.8)                                                                 
  3.14159400E+00  0.00000000E+00  3.14159400E+00  3.14159400E+00  3.14159400E+00
  3.14159400E+00  3.14159400E+00  3.14159400E+00  3.14159400E+00  3.14159400E+00
  3.14159400E+00  0.00000000E+00  3.14159400E+00  0.00000000E+00  3.14159400E+00
  0.00000000E+00  3.14159400E+00  3.14159400E+00  0.00000000E+00  0.00000000E+00
  0.00000000E+00  3.14159400E+00  3.14159400E+00  0.00000000E+00  0.00000000E+00
  0.00000000E+00  0.00000000E+00  3.14159400E+00
%FLAG SCEE_SCALE_FACTOR                                                         
%FORMAT(5E16.8)                                                                 
  1.20000000E+00  1.20000000E+00  1.20000000E+00  1.20000000E+00  1.20000000E+00
  1.20000000E+00  1.20000000E+00  1.20000000E+00  1.20000000E+00  1.20000000E+00
  1.20000000E+00  1.20000000E+00  1.20000000E+00  1.20000000E+00  1.20000000E+00
  1.20000000E+00  1.20000000E+00  1.20000000E+00  1.20000000E+00  1.20000000E+00
  1.20000000E+00  0.00000000E+00  0.00000000E+00  1.20000000E+00  1.20000000E+00
  1.20000000E+00  1.20000000E+00  1.20000000E+00
%FLAG SCNB_SCALE_FACTOR                                                         
%FORMAT(5E16.8)                                                                 
  2.00000000E+00  2.00000000E+00  2.00000000E+00  2.00000000E+00  2.00000000E+00
  2.00000000E+00  2.00000000E+00  2.00000000E+00  2.00000000E+00  2.00000000E+00
  2.00000000E+00  2.00000000E+00  2.00000000E+00  2.00000000E+00  2.00000000E+00
  2.00000000E+00  2.00000000E+00  2.00000000E+00  2.00000000E+00  2.00000000E+00
  2.00000000E+00  0.00000000E+00  0.00000000E+00  2.00000000E+00  2.00000000E+00
  2.00000000E+00  2.00000000E+00  2.00000000E+00
%FLAG SOLTY                                                                     
%FORMAT(5E16.8)                                                                 
  0.00000000E+00  0.00000000E+00  0.00000000E+00  0.00000000E+00  0.00000000E+00
  0.00000000E+00  0.00000000E+00  0.00000000E+00  0.00000000E+00  0.00000000E+00
  0.00000000E+00  0.00000000E+00  0.00000000E+00  0.00000000E+00  0.00000000E+00
  0.00000000E+00  0.00000000E+00  0.00000000E+00  0.00000000E+00  0.00000000E+00
  0.00000000E+00  0.00000000E+00  0.00000000E+00  0.00000000E+00  0.00000000E+00
  0.00000000E+00  0.00000000E+00  0.00000000E+00  0.00000000E+00  0.00000000E+00
  0.00000000E+00  0.00000000E+00  0.00000000E+00  0.00000000E+00  0.00000000E+00
  0.00000000E+00  0.00000000E+00  0.00000000E+00  0.00000000E+00  0.00000000E+00
  0.00000000E+00  0.00000000E+00  0.00000000E+00  0.00000000E+00  0.00000000E+00
  0.00000000E+00  0.00000000E+00
%FLAG LENNARD_JONES_ACOEF                                                       
%FORMAT(5E16.8)                                                                 
  1.04308023E+06  9.71708117E+04  7.51607703E+03  6.78771368E+04  4.98586848E+03
  3.25969625E+03  6.28541240E+05  5.33379252E+04  3.63097246E+04  3.61397723E+05
  9.24822270E+05  8.61541883E+04  6.01816484E+04  5.57281136E+05  8.19971662E+05
  6.47841731E+05  5.44261042E+04  3.69471530E+04  3.70622491E+05  5.74393458E+05
  3.79876399E+05  8.59947003E+04  6.55825601E+03  4.33325458E+03  4.68711055E+04
  7.62451550E+04  4.77908183E+04  5.71629601E+03  9.95480466E+05  8.96776989E+04
  6.20665997E+04  5.89818288E+05  8.82619071E+05  6.06829342E+05  7.91627154E+04
  9.44293233E+05  2.56678134E+03  1.07193646E+02  5.94667300E+01  1.03954408E+03
  2.27577561E+03  1.02595236E+03  8.90987508E+01  2.12601181E+03  1.39982777E-01
%FLAG LENNARD_JONES_BCOEF                                                       
%FORMAT(5E16.8)                                                                 
  6.75612247E+02  1.26919150E+02  2.17257828E+01  1.06076943E+02  1.76949863E+01
  1.43076527E+01  5.85549272E+02  1.04986921E+02  8.66220817E+01  4.95732238E+02
  5.99015525E+02  1.12529845E+02  9.40505980E+01  5.19163331E+02  5.31102864E+02
  6.26720080E+02  1.11805549E+02  9.21192136E+01  5.29252520E+02  5.55666448E+02
  5.64885984E+02  1.18043746E+02  2.00642027E+01  1.63092814E+01  9.73010751E+01
  1.04660679E+02  1.03580945E+02  1.85196588E+01  7.36907417E+02  1.36131731E+02
  1.13252061E+02  6.33305958E+02  6.53361429E+02  6.77220874E+02  1.26451907E+02
  8.01323529E+02  2.06278363E+01  2.59456373E+00  1.93248820E+00  1.46567808E+01
  1.82891803E+01  1.53505284E+01  2.33864085E+00  2.09604198E+01  9.37598976E-02
%FLAG BONDS_INC_HYDROGEN                                                        
%FORMAT(10I8)                                                                   
       3       0      12       6       0      12       9       0      12      15
      12      13      18      12      13      39      36      14      42      33
      14      48      45      14      54      51      14      63      60      15
      75      72      13      78      72      13      96      93      14     102
      99      14     108     105      14     114     111      14     129     126
      13     132     126      13     138     135      13     141     135      13
%FLAG BONDS_WITHOUT_HYDROGEN                                                    
%FORMAT(10I8)                                                                   
      12       0       1      21      12       2      24      21       3      27
      24       4      30      24       5      33      30       6      36      33
       6      45      30       6      51      45       6      57      51       6
      57      36       6      60      57       7      66      60       8      69
      66       4      72      66       9      81      72      10      84      81
       8      87      84       4      90      81       7      93      90       6
      99      93       6     105      99       6     111     105       6     117
     111       6     117      90       6     120     117      11     120      84
       9     123     120       2     126     123       2     135     126       1
     144     135       2     144     120       2
%FLAG ANGLES_INC_HYDROGEN                                                       
%FORMAT(10I8)                                                                   
       6       0       3      22       9       0       3      22       9       0
       6      22      12       0       3      23      12       0       6      23
      12       0       9      23      15      12       0      24      18      12
       0      24      18      12      15      25      21      12      15      26
      21      12      18      26      39      36      33      27      42      33
      30      27      42      33      36      27      48      45      30      27
      51      45      48      27      54      51      45      27      57      51
      54      27      57      36      39      27      63      60      57      28
      66      60      63      29      75      72      66      30      78      72
      66      30      78      72      75      25      81      72      75      31
      81      72      78      31      96      93      90      27      99      93
      96      27     102      99      93      27     105      99     102      27
     108     105      99      27     111     105     108      27     114     111
     105      27     117     111     114      27     129     126     123      26
     132     126     123      26     132     126     129      25     135     126
     129      24     135     126     132      24     138     135     126      24
     141     135     126      24     141     135     138      25     144     135
     138      26     144     135     141      26
%FLAG ANGLES_WITHOUT_HYDROGEN                                                   
%FORMAT(10I8)                                                                   
      21      12       0       1      24      21      12       2      27      24
      21       3      30      24      21       4      30      24      27       5
      33      30      24       6      36      33      30       7      45      30
      24       6      45      30      33       7      51      45      30       7
      51      57      36       7      57      51      45       7      57      36
      33       7      60      57      51       8      60      57      36       8
      66      60      57       9      69      66      60      10      72      66
      60      11      72      66      69      12      81      72      66      13
      84      81      72      14      87      84      81      10      90      81
      72      15      90      81      84       9      93      90      81       8
      99      93      90       7     105      99      93       7     111     105
      99       7     111     117      90       7     117     111     105       7
     117     120      84      16     117      90      81       8     117      90
      93       7     120     117     111      17     120     117      90      17
     120      84      81      11     120      84      87      12     123     120
     117      18     123     120      84      19     126     123     120      20
     135     126     123       1     135     144     120      20     144     135
     126       1     144     120     117      18     144     120     123      21
     144     120      84      19
%FLAG DIHEDRALS_INC_HYDROGEN                                                    
%FORMAT(10I8)                                                                   
      15      12       0       3      24      15      12       0       6      24
      15      12       0       9      24      18      12       0       3      24
      18      12       0       6      24      18      12       0       9      24
      21      12       0       3      25       3       0     -12      21      26
      21      12       0       6      25       6       0     -12      21      26
      21      12       0       9      25       9       0     -12      21      26
      24      21      12      15      16      24      21      12      18      16
      39      36      33      30       6      42      33      30      24       6
      42      33      36      39       6      45      30      33      42       6
      48      45      30      24       6      48      45      30      33       6
      51      57      36      39       6      54      51      45      30       6
      54      51      45      48       6      54      51      57      36       6
      57      51      45      48       6      57      36      33      42       6
      60      57      51      54       6      60      57      36      39       6
      63      60      57      51       7      63      60      57      36       7
      69      66      60      63      27      69      66     -60      63       8
      72      66      60      63       8      75      72      66      60      11
      75      72      66      69      12      75      72     -66      69      14
      75      72     -66      69      28      78      72      66      60      11
      78      72      66      69      12      78      72     -66      69      14
      78      72     -66      69      28      84      81      72      75      14
      84      81      72      78      14      90      81      72      75      14
      90      81      72      78      14      96      93      90      81       6
     102      99      93      90       6     102      99      93      96       6
     105      99      93      96       6     108     105      99      93       6
     108     105      99     102       6     111     105      99     102       6
     114     111     105      99       6     114     111     105     108       6
     114     111     117      90       6     117     111     105     108       6
     117      90      93      96       6     120     117     111     114       6
     129     126     123     120      16     132     126     123     120      16
     138     135     126     123      25     138     135    -126     123      26
     138     135     126     129      24     138     135     126     132      24
     138     135     144     120      16     141     135     126     123      25
     141     135    -126     123      26     141     135     126     129      24
     141     135     126     132      24     141     135     144     120      16
     144     135     126     129      25     144     135    -126     129      26
     144     135     126     132      25     144     135    -126     132      26
      30      36     -33     -42      22      33      57     -36     -39      22
      30      51     -45     -48      22      45      57     -51     -54      22
      66      57     -60     -63      22      90      99     -93     -96      22
      93     105     -99    -102      22      99     111    -105    -108      22
     105     117    -111    -114      22
%FLAG DIHEDRALS_WITHOUT_HYDROGEN                                                
%FORMAT(10I8)                                                                   
      24      21      12       0       1       0      12     -21      24       2
      27      24      21      12       3      27      24     -21      12       4
      30      24      21      12       4      33      30      24      21       5
      33      30      24      27       5      36      33      30      24       6
      45      30      24      21       5      45      30      24      27       5
      45      30      33      36       6      45      51     -57      36       6
      51      45      30      24       6      51      45      30      33       6
      51      57     -36      33       6      57      51      45      30       6
      57      36     -33      30       6      60      57      51      45       6
      60      57      36      33       6      66      60      57      51       7
      66      60      57      36       7      69      66      60      57       8
      72      66      60      57       8      81      72      66      60       9
      81      72     -66      60      10      81      72      66      69      11
      84      81      72      66      12      84      81     -72      66      13
      87      84      81      72       8      90      81      72      66      14
      90      81      84      87       8      90     117    -120      84      14
      93      90      81      72       7      93      90      81      84       7
      99      93      90      81       6     105      99      93      90       6
     105     111    -117      90       6     111     105      99      93       6
     111     117     120      84      14     111     117      90      81       6
     111     117     -90      93       6     117     111     105      99       6
     117     120     -84      81      11     117     120      84      87      11
     117      90      81      72       7     117      90     -81      84       7
     117      90     -93      99       6     120     117     111     105       6
     120     117     -90      81       6     120     117      90      93       6
     120      84      81      72      15     120      84     -81      72      14
     120      84     -81      90       8     123     120     117     111      14
     123     120     117      90      14     123     120      84      81      11
     123     120      84      87      11     126     123     120     117      16
     126     123     120      84      16     126     135    -144     120      17
     126     135    -144     120       2     135     126    -123     120      17
     135     126    -123     120       2     135     144     120     117      16
     135     144    -120     123      18     135     144    -120     123      13
     135     144    -120     123      19     135     144     120      84      16
     144     135    -126     123      20     144     135    -126     123      21
     144     120     117     111      14     144     120     117      90      14
     144     120    -123     126      18     144     120    -123     126      13
     144     120    -123     126      19     144     120      84      81      11
     144     120      84      87      11      30      27     -24     -21      22
      24      33     -30     -45      22      36      51     -57     -60      22
      72      60     -66     -69      23      84      72     -81     -90      22
     120      81     -84     -87      23      93     117     -90     -81      22
     120      90    -117    -111      22
%FLAG EXCLUDED_ATOMS_LIST                                                       
%FORMAT(10I8)                                                                   
       2       3       4       5       6       7       8       9       3       4
       5       6       7       8       4       5       6       7       8       5
       6       7       8       6       7       8       9      10      11       7
       8       9       8       9       9      10      11      12      16      10
      11      12      13      15      16      17      18      11      12      16
      12      13      14      15      16      17      18      19      20      13
      14      15      16      17      18      20      21      14      15      16
      18      19      20      21      22      23      15      18      20      21
      16      20      17      18      19      20      21      18      19      20
      19      20      21      22      23      20      21      21      22      23
      24      25      22      23      24      25      26      27      28      23
      24      25      24      25      26      27      28      29      31      25
      26      27      28      26      27      28      29      30      31      32
      40      41      27      28      29      31      28      29      31      29
      30      31      32      33      34      38      40      41      42      49
      30      31      32      38      40      41      42      43      46      49
      31      40      41      42      49      32      33      34      35      36
      38      39      40      41      42      49      33      34      35      36
      37      38      40      41      34      35      36      40      35      36
      37      38      39      40      36      37      38      37      38      39
      40      41      38      39      40      39      40      41      42      49
      40      41      41      42      43      46      49      42      43      44
      45      46      47      48      49      43      44      45      46      47
      48      49      44      45      46      47      48      49      45      46
      47      48      49      46      47      48      49      47      48      49
      48      49      49       0
%FLAG HBOND_ACOEF                                                               
%FORMAT(5E16.8)                                                                 

%FLAG HBOND_BCOEF                                                               
%FORMAT(5E16.8)                                                                 

%FLAG HBCUT                                                                     
%FORMAT(5E16.8)                                                                 

%FLAG AMBER_ATOM_TYPE                                                           
%FORMAT(20a4)                                                                   
c3  hc  hc  hc  c3  h1  h1  os  c   o   ca  ca  ca  ha  ha  ca  ha  ca  ha  ca  
n   hn  c   o   c3  h1  h1  n   c   o   ca  ca  ha  ca  ha  ca  ha  ca  ha  ca  
c3  os  c3  h1  h1  c3  h1  h1  os  
%FLAG TREE_CHAIN_CLASSIFICATION                                                 
%FORMAT(20a4)                                                                   
M   E   E   E   M   E   E   M   M   E   M   B   S   E   E   M   E   M   E   M   
M   E   M   E   M   E   E   M   M   E   B   B   E   B   E   B   E   S   E   E   
M   S   3   E   E   B   E   E   M   
%FLAG JOIN_ARRAY                                                                
%FORMAT(10I8)                                                                   
       0       0       0       0       0       0       0       0       0       0
       0       0       0       0       0       0       0       0       0       0
       0       0       0       0       0       0       0       0       0       0
       0       0       0       0       0       0       0       0       0       0
       0       0       0       0       0       0       0       0       0
%FLAG IROTAT                                                                    
%FORMAT(10I8)                                                                   
       0       0       0       0       0       0       0       0       0       0
       0       0       0       0       0       0       0       0       0       0
       0       0       0       0       0       0       0       0       0       0
       0       0       0       0       0       0       0       0       0       0
       0       0       0       0       0       0       0       0       0
%FLAG RADIUS_SET                                                                
%FORMAT(1a80)                                                                   
H(N)-modified Bondi radii (mbondi2)                                             
%FLAG RADII                                                                     
%FORMAT(5E16.8)                                                                 
  1.70000000E+00  1.20000000E+00  1.20000000E+00  1.20000000E+00  1.70000000E+00
  1.20000000E+00  1.20000000E+00  1.50000000E+00  1.70000000E+00  1.50000000E+00
  1.70000000E+00  1.70000000E+00  1.70000000E+00  1.20000000E+00  1.20000000E+00
  1.70000000E+00  1.20000000E+00  1.70000000E+00  1.20000000E+00  1.70000000E+00
  1.55000000E+00  1.30000000E+00  1.70000000E+00  1.50000000E+00  1.70000000E+00
  1.20000000E+00  1.20000000E+00  1.55000000E+00  1.70000000E+00  1.50000000E+00
  1.70000000E+00  1.70000000E+00  1.20000000E+00  1.70000000E+00  1.20000000E+00
  1.70000000E+00  1.20000000E+00  1.70000000E+00  1.20000000E+00  1.70000000E+00
  1.70000000E+00  1.50000000E+00  1.70000000E+00  1.20000000E+00  1.20000000E+00
  1.70000000E+00  1.20000000E+00  1.20000000E+00  1.50000000E+00
%FLAG SCREEN                                                                    
%FORMAT(5E16.8)                                                                 
  7.20000000E-01  8.50000000E-01  8.50000000E-01  8.50000000E-01  7.20000000E-01
  8.50000000E-01  8.50000000E-01  8.50000000E-01  7.20000000E-01  8.50000000E-01
  7.20000000E-01  7.20000000E-01  7.20000000E-01  8.50000000E-01  8.50000000E-01
  7.20000000E-01  8.50000000E-01  7.20000000E-01  8.50000000E-01  7.20000000E-01
  7.90000000E-01  8.50000000E-01  7.20000000E-01  8.50000000E-01  7.20000000E-01
  8.50000000E-01  8.50000000E-01  7.90000000E-01  7.20000000E-01  8.50000000E-01
  7.20000000E-01  7.20000000E-01  8.50000000E-01  7.20000000E-01  8.50000000E-01
  7.20000000E-01  8.50000000E-01  7.20000000E-01  8.50000000E-01  7.20000000E-01
  7.20000000E-01  8.50000000E-01  7.20000000E-01  8.50000000E-01  8.50000000E-01
  7.20000000E-01  8.50000000E-01  8.50000000E-01  8.50000000E-01
%FLAG RESIDUE_NUMBER                                                            
%FORMAT(20I4)                                                                   
 304
